                         Program Version 4.0.1.2 - RELEASE -
|  1> ! UKS wB97X-D3 def2-SVP RIJCOSX def2/JK SlowConv
|  2>
|  3>
|  4> %scf
|  5> 	MaxIter		500
|  6> 	STABPerform	True
|  7> end
|  8>
|  9> %tddft
| 10> 	NRoots 6
| 11> end
| 12>
| 13> * xyz 0 1
| 14>  C                 -1.18578599   -1.17301779    0.00000000
| 15>  C                 -1.22528521    0.21672485    0.00000000
| 16>  C                 -0.03021307    0.94488843    0.00000000
| 17>  C                  1.19387265    0.26897053    0.00000000
| 18>  C                  1.21998389   -1.12396818    0.00000000
| 19>  C                  0.03366349   -1.85245673    0.00000000
| 20>  H                 -2.12142076   -1.73821028    0.00000000
| 21>  H                 -2.17044776    0.76362561    0.00000000
| 22>  H                  2.12866956    0.83920121    0.00000000
| 23>  H                  2.18175171   -1.64285600    0.00000000
| 24>  H                  0.05704252   -2.94432740    0.00000000
| 25>  O                 -0.11105943    2.29589847    0.00000000
| 26>  H                  1.17956297    2.83838701    0.00000000
| 27> end
| 28>
| 29>                          ****END OF INPUT****

CARTESIAN COORDINATES (ANGSTROEM)
---------------------------------
  C     -1.185786   -1.173018    0.000000
  C     -1.225285    0.216725    0.000000
  C     -0.030213    0.944888    0.000000
  C      1.193873    0.268971    0.000000
  C      1.219984   -1.123968    0.000000
  C      0.033663   -1.852457    0.000000
  H     -2.121421   -1.738210    0.000000
  H     -2.170448    0.763626    0.000000
  H      2.128670    0.839201    0.000000
  H      2.181752   -1.642856    0.000000
  H      0.057043   -2.944327    0.000000
  O     -0.111059    2.295898    0.000000
  H      1.179563    2.838387    0.000000

 Total Charge           Charge          ....    0
 Multiplicity           Mult            ....    1
 Number of Electrons    NEL             ....   50
 Basis Dimension        Dim             ....  128

ORBITAL ENERGIES
----------------
                 SPIN UP ORBITALS
  NO   OCC          E(Eh)            E(eV)
   0   1.0000     -19.289297      -524.8885
   1   1.0000     -10.351452      -281.6773
   2   1.0000     -10.296158      -280.1727
   3   1.0000     -10.295251      -280.1480
   4   1.0000     -10.291318      -280.0410
   5   1.0000     -10.287271      -279.9309
   6   1.0000     -10.284270      -279.8492
   7   1.0000      -1.129699       -30.7407
   8   1.0000      -0.959694       -26.1146
   9   1.0000      -0.857267       -23.3274
  10   1.0000      -0.835519       -22.7356
  11   1.0000      -0.719875       -19.5888
  12   1.0000      -0.694129       -18.8882
  13   1.0000      -0.623230       -16.9590
  14   1.0000      -0.586137       -15.9496
  15   1.0000      -0.564768       -15.3681
  16   1.0000      -0.531187       -14.4543
  17   1.0000      -0.520986       -14.1768
  18   1.0000      -0.512542       -13.9470
  19   1.0000      -0.470778       -12.8105
  20   1.0000      -0.453775       -12.3479
  21   1.0000      -0.435269       -11.8443
  22   1.0000      -0.426871       -11.6158
  23   1.0000      -0.342980        -9.3330
  24   1.0000      -0.304713        -8.2917
  25   0.0000       0.010946         0.2978
  26   0.0000       0.068736         1.8704
  27   0.0000       0.087769         2.3883
  28   0.0000       0.150419         4.0931
  29   0.0000       0.189662         5.1610

                 SPIN DOWN ORBITALS
  NO   OCC          E(Eh)            E(eV)
   0   1.0000     -19.289297      -524.8885
   1   1.0000     -10.351452      -281.6773
   2   1.0000     -10.296158      -280.1727
   3   1.0000     -10.295251      -280.1480
   4   1.0000     -10.291318      -280.0410
   5   1.0000     -10.287271      -279.9309
   6   1.0000     -10.284270      -279.8492
   7   1.0000      -1.129699       -30.7407
   8   1.0000      -0.959694       -26.1146
   9   1.0000      -0.857267       -23.3274
  10   1.0000      -0.835519       -22.7356
  11   1.0000      -0.719875       -19.5888
  12   1.0000      -0.694129       -18.8882
  13   1.0000      -0.623230       -16.9590
  14   1.0000      -0.586137       -15.9496
  15   1.0000      -0.564768       -15.3681
  16   1.0000      -0.531187       -14.4543
  17   1.0000      -0.520986       -14.1768
  18   1.0000      -0.512542       -13.9470
  19   1.0000      -0.470778       -12.8105
  20   1.0000      -0.453775       -12.3479
  21   1.0000      -0.435269       -11.8443
  22   1.0000      -0.426871       -11.6158
  23   1.0000      -0.342980        -9.3330
  24   1.0000      -0.304713        -8.2917
  25   0.0000       0.010946         0.2978
  26   0.0000       0.068736         1.8704
  27   0.0000       0.087769         2.3883
  28   0.0000       0.150419         4.0931
  29   0.0000       0.189662         5.1610

MULLIKEN ATOMIC CHARGES AND SPIN POPULATIONS
--------------------------------------------
   0 C :   -0.009553    0.000000
   1 C :   -0.065173    0.000000
   2 C :    0.227244    0.000000
   3 C :   -0.105295    0.000000
   4 C :   -0.014728    0.000000
   5 C :   -0.035469    0.000000
   6 H :    0.024154    0.000000
   7 H :    0.020415    0.000000
   8 H :   -0.011617    0.000000
   9 H :    0.020564    0.000000
  10 H :    0.017955    0.000000
  11 O :   -0.346079    0.000000
  12 H :    0.277583    0.000000
Sum of atomic charges         :   -0.0000000

LOEWDIN ATOMIC CHARGES AND SPIN POPULATIONS
-------------------------------------------
   0 C :   -0.015112    0.000000
   1 C :   -0.065612    0.000000
   2 C :    0.037257    0.000000
   3 C :   -0.095067    0.000000
   4 C :   -0.017868    0.000000
   5 C :   -0.065318    0.000000
   6 H :    0.034768    0.000000
   7 H :    0.037326    0.000000
   8 H :    0.023087    0.000000
   9 H :    0.033503    0.000000
  10 H :    0.030487    0.000000
  11 O :   -0.178102    0.000000
  12 H :    0.240650    0.000000

  Mayer bond orders larger than 0.1
B(  0-C ,  1-C ) :   1.4101 B(  0-C ,  5-C ) :   1.3847 B(  0-C ,  6-H ) :   0.9870
B(  1-C ,  2-C ) :   1.3584 B(  1-C ,  7-H ) :   0.9920 B(  2-C ,  3-C ) :   1.3378
B(  2-C , 11-O ) :   1.1358 B(  3-C ,  4-C ) :   1.3967 B(  3-C ,  8-H ) :   0.9830
B(  4-C ,  5-C ) :   1.4081 B(  4-C ,  9-H ) :   0.9839 B(  5-C , 10-H ) :   0.9916
B( 11-O , 12-H ) :   0.8649

-----------------------------------------------------------------------------
         ABSORPTION SPECTRUM VIA TRANSITION ELECTRIC DIPOLE MOMENTS
-----------------------------------------------------------------------------
State   Energy  Wavelength   fosc         T2         TX        TY        TZ
        (cm-1)    (nm)                  (au**2)     (au)      (au)      (au)
-----------------------------------------------------------------------------
   1   24436.9    409.2   0.000000000   0.00000  -0.00000  -0.00000  -0.00000
   2   28054.4    356.5   0.000000378   0.00000   0.00000   0.00000   0.00211
   3   33959.7    294.5   0.000000000   0.00000   0.00000  -0.00000   0.00000
   4   35133.6    284.6   0.000000000   0.00000  -0.00000   0.00000   0.00000
   5   38156.2    262.1   0.000000000   0.00000  -0.00000  -0.00000  -0.00000
   6   39334.4    254.2   0.000000000   0.00000  -0.00000  -0.00000  -0.00000

Dispersion correction           -0.002972779
FINAL SINGLE POINT ENERGY      -307.080649766282

DIPOLE MOMENT
-------------
                                X             Y             Z
Electronic contribution:     -0.56021       1.98190      -0.00000
Nuclear contribution   :      1.20211      -1.86427       0.00000
                        -----------------------------------------
Total Dipole Moment    :      0.64189       0.11763      -0.00000
                        -----------------------------------------
Magnitude (a.u.)       :      0.65258
Magnitude (Debye)      :      1.65874

                             ****ORCA TERMINATED NORMALLY****
TOTAL RUN TIME: 0 days 0 hours 3 minutes 28 seconds 449 msec
