                         Program Version 4.0.1.2 - RELEASE -
|  1> ! UKS wB97X-D3 def2-SVP RIJCOSX def2/JK SlowConv
|  2>
|  3>
|  4> %scf
|  5> 	MaxIter		500
|  6> 	STABPerform	True
|  7> end
|  8>
|  9> %tddft
| 10> 	NRoots 6
| 11> end
| 12>
| 13> * xyz 0 1
| 14>  C                 -1.18578599   -1.17301779    0.00000000
| 15>  C                 -1.22528521    0.21672485    0.00000000
| 16>  C                 -0.03021307    0.94488843    0.00000000
| 17>  C                  1.19387265    0.26897053    0.00000000
| 18>  C                  1.21998389   -1.12396818    0.00000000
| 19>  C                  0.03366349   -1.85245673    0.00000000
| 20>  H                 -2.12142076   -1.73821028    0.00000000
| 21>  H                 -2.17044776    0.76362561    0.00000000
| 22>  H                  2.12866956    0.83920121    0.00000000
| 23>  H                  2.18175171   -1.64285600    0.00000000
| 24>  H                  0.05704252   -2.94432740    0.00000000
| 25>  O                 -0.11105943    2.29589847    0.00000000
| 26>  H                  2.65456001    3.45837389    0.00000000
| 27> end
| 28>
| 29>                          ****END OF INPUT****

CARTESIAN COORDINATES (ANGSTROEM)
---------------------------------
  C     -1.185786   -1.173018    0.000000
  C     -1.225285    0.216725    0.000000
  C     -0.030213    0.944888    0.000000
  C      1.193873    0.268971    0.000000
  C      1.219984   -1.123968    0.000000
  C      0.033663   -1.852457    0.000000
  H     -2.121421   -1.738210    0.000000
  H     -2.170448    0.763626    0.000000
  H      2.128670    0.839201    0.000000
  H      2.181752   -1.642856    0.000000
  H      0.057043   -2.944327    0.000000
  O     -0.111059    2.295898    0.000000
  H      2.654560    3.458374    0.000000

 Total Charge           Charge          ....    0
 Multiplicity           Mult            ....    1
 Number of Electrons    NEL             ....   50
 Basis Dimension        Dim             ....  128

ORBITAL ENERGIES
----------------
                 SPIN UP ORBITALS
  NO   OCC          E(Eh)            E(eV)
   0   1.0000     -19.307115      -525.3733
   1   1.0000     -10.366053      -282.0746
   2   1.0000     -10.307305      -280.4760
   3   1.0000     -10.307020      -280.4683
   4   1.0000     -10.305139      -280.4171
   5   1.0000     -10.304691      -280.4049
   6   1.0000     -10.295411      -280.1524
   7   1.0000      -1.117575       -30.4108
   8   1.0000      -0.969265       -26.3750
   9   1.0000      -0.868144       -23.6234
  10   1.0000      -0.842537       -22.9266
  11   1.0000      -0.725734       -19.7482
  12   1.0000      -0.699764       -19.0416
  13   1.0000      -0.626280       -17.0419
  14   1.0000      -0.573122       -15.5954
  15   1.0000      -0.569563       -15.4986
  16   1.0000      -0.535912       -14.5829
  17   1.0000      -0.530888       -14.4462
  18   1.0000      -0.524621       -14.2757
  19   1.0000      -0.464615       -12.6428
  20   1.0000      -0.453719       -12.3463
  21   1.0000      -0.444836       -12.1046
  22   1.0000      -0.415137       -11.2964
  23   1.0000      -0.354243        -9.6394
  24   1.0000      -0.315395        -8.5823
  25   0.0000      -0.079194        -2.1550
  26   0.0000       0.058046         1.5795
  27   0.0000       0.075748         2.0612
  28   0.0000       0.145300         3.9538
  29   0.0000       0.184226         5.0130

                 SPIN DOWN ORBITALS
  NO   OCC          E(Eh)            E(eV)
   0   1.0000     -19.326151      -525.8913
   1   1.0000     -10.365765      -282.0668
   2   1.0000     -10.307450      -280.4800
   3   1.0000     -10.307109      -280.4707
   4   1.0000     -10.305967      -280.4396
   5   1.0000     -10.305741      -280.4335
   6   1.0000     -10.295332      -280.1502
   7   1.0000      -1.174180       -31.9511
   8   1.0000      -0.974711       -26.5232
   9   1.0000      -0.870337       -23.6831
  10   1.0000      -0.851008       -23.1571
  11   1.0000      -0.733884       -19.9700
  12   1.0000      -0.706019       -19.2117
  13   1.0000      -0.632876       -17.2214
  14   1.0000      -0.597285       -16.2529
  15   1.0000      -0.580792       -15.8042
  16   1.0000      -0.543365       -14.7857
  17   1.0000      -0.536415       -14.5966
  18   1.0000      -0.532298       -14.4846
  19   1.0000      -0.499787       -13.5999
  20   1.0000      -0.467531       -12.7222
  21   1.0000      -0.454833       -12.3766
  22   1.0000      -0.441170       -12.0049
  23   1.0000      -0.354650        -9.6505
  24   1.0000      -0.323461        -8.8018
  25   0.0000       0.057196         1.5564
  26   0.0000       0.074472         2.0265
  27   0.0000       0.141601         3.8532
  28   0.0000       0.171053         4.6546
  29   0.0000       0.191370         5.2075

MULLIKEN ATOMIC CHARGES AND SPIN POPULATIONS
--------------------------------------------
   0 C :   -0.007597   -0.005868
   1 C :   -0.070061   -0.043525
   2 C :    0.186941    0.048320
   3 C :   -0.077841   -0.035974
   4 C :   -0.009214   -0.004025
   5 C :   -0.031912    0.009187
   6 H :    0.031067   -0.003158
   7 H :    0.027650    0.000432
   8 H :    0.024392    0.001647
   9 H :    0.030000   -0.002495
  10 H :    0.023930   -0.000287
  11 O :   -0.133626   -0.955361
  12 H :    0.006271    0.991106
Sum of atomic charges         :   -0.0000000

LOEWDIN ATOMIC CHARGES AND SPIN POPULATIONS
-------------------------------------------
   0 C :   -0.011966   -0.004416
   1 C :   -0.063448   -0.035070
   2 C :    0.022136   -0.001568
   3 C :   -0.068619   -0.026915
   4 C :   -0.012168   -0.002324
   5 C :   -0.058287    0.007192
   6 H :    0.038219   -0.002321
   7 H :    0.038877    0.000539
   8 H :    0.036505    0.003679
   9 H :    0.038233   -0.001943
  10 H :    0.033049    0.000116
  11 O :    0.000608   -0.924651
  12 H :    0.006862    0.987681

  Mayer bond orders larger than 0.1
B(  0-C ,  1-C ) :   1.4051 B(  0-C ,  5-C ) :   1.3914 B(  0-C ,  6-H ) :   0.9854
B(  1-C ,  2-C ) :   1.3331 B(  1-C ,  7-H ) :   0.9922 B(  2-C ,  3-C ) :   1.3367
B(  2-C , 11-O ) :   1.1682 B(  3-C ,  4-C ) :   1.3952 B(  3-C ,  8-H ) :   0.9939
B(  4-C ,  5-C ) :   1.4025 B(  4-C ,  9-H ) :   0.9859 B(  5-C , 10-H ) :   0.9917

-----------------------------------------------------------------------------
         ABSORPTION SPECTRUM VIA TRANSITION ELECTRIC DIPOLE MOMENTS
-----------------------------------------------------------------------------
State   Energy  Wavelength   fosc         T2         TX        TY        TZ
        (cm-1)    (nm)                  (au**2)     (au)      (au)      (au)
-----------------------------------------------------------------------------
   1   -2226.3   -4491.7   -0.000000000   0.00000  -0.00000   0.00013  -0.00017
   2   22357.5    447.3   0.000031249   0.00046  -0.00007   0.00001  -0.02145
   3   29310.5    341.2   0.000001727   0.00002   0.00002  -0.00016  -0.00440
   4   33098.7    302.1   0.006343276   0.06309   0.23819   0.07975   0.00001
   5   34043.6    293.7   0.000198345   0.00192  -0.00043  -0.04379   0.00000
   6   35709.6    280.0   0.000324888   0.00300  -0.05472  -0.00080   0.00000

Dispersion correction           -0.003146839
FINAL SINGLE POINT ENERGY      -306.979178651399

DIPOLE MOMENT
-------------
                                X             Y             Z
Electronic contribution:     -2.44209       0.80937      -0.00000
Nuclear contribution   :      2.49675      -1.32009       0.00000
                        -----------------------------------------
Total Dipole Moment    :      0.05467      -0.51072      -0.00000
                        -----------------------------------------
Magnitude (a.u.)       :      0.51364
Magnitude (Debye)      :      1.30557

                             ****ORCA TERMINATED NORMALLY****
TOTAL RUN TIME: 0 days 0 hours 4 minutes 20 seconds 168 msec
