                         Program Version 4.0.1.2 - RELEASE -
|  1> ! UKS wB97X-D3 def2-SVP RIJCOSX def2/JK SlowConv
|  2>
|  3>
|  4> %scf
|  5> 	MaxIter		500
|  6> 	STABPerform	True
|  7> end
|  8>
|  9> %tddft
| 10> 	NRoots 6
| 11> end
| 12>
| 13> * xyz 0 1
| 14>  C                 -1.18578599   -1.17301779    0.00000000
| 15>  C                 -1.22528521    0.21672485    0.00000000
| 16>  C                 -0.03021307    0.94488843    0.00000000
| 17>  C                  1.19387265    0.26897053    0.00000000
| 18>  C                  1.21998389   -1.12396818    0.00000000
| 19>  C                  0.03366349   -1.85245673    0.00000000
| 20>  H                 -2.12142076   -1.73821028    0.00000000
| 21>  H                 -2.17044776    0.76362561    0.00000000
| 22>  H                  2.12866956    0.83920121    0.00000000
| 23>  H                  2.18175171   -1.64285600    0.00000000
| 24>  H                  0.05704252   -2.94432740    0.00000000
| 25>  O                 -0.11105943    2.29589847    0.00000000
| 26>  H                  1.91706149    3.14838045    0.00000000
| 27> end
| 28>
| 29>                          ****END OF INPUT****

CARTESIAN COORDINATES (ANGSTROEM)
---------------------------------
  C     -1.185786   -1.173018    0.000000
  C     -1.225285    0.216725    0.000000
  C     -0.030213    0.944888    0.000000
  C      1.193873    0.268971    0.000000
  C      1.219984   -1.123968    0.000000
  C      0.033663   -1.852457    0.000000
  H     -2.121421   -1.738210    0.000000
  H     -2.170448    0.763626    0.000000
  H      2.128670    0.839201    0.000000
  H      2.181752   -1.642856    0.000000
  H      0.057043   -2.944327    0.000000
  O     -0.111059    2.295898    0.000000
  H      1.917061    3.148380    0.000000

 Total Charge           Charge          ....    0
 Multiplicity           Mult            ....    1
 Number of Electrons    NEL             ....   50
 Basis Dimension        Dim             ....  128

ORBITAL ENERGIES
----------------
                 SPIN UP ORBITALS
  NO   OCC          E(Eh)            E(eV)
   0   1.0000     -19.319761      -525.7174
   1   1.0000     -10.362495      -281.9778
   2   1.0000     -10.305049      -280.4146
   3   1.0000     -10.304503      -280.3998
   4   1.0000     -10.302664      -280.3498
   5   1.0000     -10.302548      -280.3466
   6   1.0000     -10.292865      -280.0831
   7   1.0000      -1.165878       -31.7252
   8   1.0000      -0.971645       -26.4398
   9   1.0000      -0.867608       -23.6088
  10   1.0000      -0.847658       -23.0660
  11   1.0000      -0.730793       -19.8859
  12   1.0000      -0.702968       -19.1287
  13   1.0000      -0.629530       -17.1304
  14   1.0000      -0.592776       -16.1302
  15   1.0000      -0.577013       -15.7013
  16   1.0000      -0.540218       -14.7001
  17   1.0000      -0.531205       -14.4548
  18   1.0000      -0.530049       -14.4234
  19   1.0000      -0.492632       -13.4052
  20   1.0000      -0.465022       -12.6539
  21   1.0000      -0.450868       -12.2687
  22   1.0000      -0.438055       -11.9201
  23   1.0000      -0.352186        -9.5835
  24   1.0000      -0.319617        -8.6972
  25   0.0000      -0.007528        -0.2048
  26   0.0000       0.059616         1.6222
  27   0.0000       0.077433         2.1071
  28   0.0000       0.146215         3.9787
  29   0.0000       0.186148         5.0654

                 SPIN DOWN ORBITALS
  NO   OCC          E(Eh)            E(eV)
   0   1.0000     -19.302491      -525.2475
   1   1.0000     -10.362771      -281.9853
   2   1.0000     -10.304908      -280.4108
   3   1.0000     -10.304488      -280.3994
   4   1.0000     -10.302119      -280.3349
   5   1.0000     -10.301555      -280.3196
   6   1.0000     -10.292947      -280.0853
   7   1.0000      -1.114474       -30.3264
   8   1.0000      -0.966811       -26.3083
   9   1.0000      -0.865842       -23.5608
  10   1.0000      -0.840186       -22.8626
  11   1.0000      -0.723895       -19.6982
  12   1.0000      -0.697714       -18.9858
  13   1.0000      -0.624101       -16.9826
  14   1.0000      -0.572071       -15.5668
  15   1.0000      -0.568730       -15.4759
  16   1.0000      -0.533500       -14.5173
  17   1.0000      -0.529265       -14.4020
  18   1.0000      -0.520814       -14.1721
  19   1.0000      -0.464494       -12.6395
  20   1.0000      -0.451547       -12.2872
  21   1.0000      -0.441539       -12.0149
  22   1.0000      -0.416042       -11.3211
  23   1.0000      -0.351937        -9.5767
  24   1.0000      -0.312107        -8.4929
  25   0.0000      -0.073949        -2.0123
  26   0.0000       0.060305         1.6410
  27   0.0000       0.078603         2.1389
  28   0.0000       0.146424         3.9844
  29   0.0000       0.185535         5.0487

MULLIKEN ATOMIC CHARGES AND SPIN POPULATIONS
--------------------------------------------
   0 C :   -0.008086    0.006160
   1 C :   -0.068567    0.040671
   2 C :    0.200494   -0.041687
   3 C :   -0.078337    0.019982
   4 C :   -0.011691    0.002390
   5 C :   -0.032589   -0.008961
   6 H :    0.029880    0.002969
   7 H :    0.026526   -0.000510
   8 H :    0.008229    0.003034
   9 H :    0.027869    0.002243
  10 H :    0.022636    0.000185
  11 O :   -0.168146    0.872431
  12 H :    0.051783   -0.898906
Sum of atomic charges         :   -0.0000000

LOEWDIN ATOMIC CHARGES AND SPIN POPULATIONS
-------------------------------------------
   0 C :   -0.012399    0.004744
   1 C :   -0.063807    0.032769
   2 C :    0.024823    0.001169
   3 C :   -0.073191    0.015696
   4 C :   -0.013565    0.000353
   5 C :   -0.060115   -0.007093
   6 H :    0.037701    0.002204
   7 H :    0.038655   -0.000531
   8 H :    0.030519   -0.004998
   9 H :    0.037310    0.001737
  10 H :    0.032493   -0.000183
  11 O :   -0.032259    0.834272
  12 H :    0.053836   -0.880140

  Mayer bond orders larger than 0.1
B(  0-C ,  1-C ) :   1.4061 B(  0-C ,  5-C ) :   1.3905 B(  0-C ,  6-H ) :   0.9856
B(  1-C ,  2-C ) :   1.3365 B(  1-C ,  7-H ) :   0.9922 B(  2-C ,  3-C ) :   1.3331
B(  2-C , 11-O ) :   1.1651 B(  3-C ,  4-C ) :   1.3975 B(  3-C ,  8-H ) :   0.9905
B(  4-C ,  5-C ) :   1.4021 B(  4-C ,  9-H ) :   0.9852 B(  5-C , 10-H ) :   0.9916
B( 11-O , 12-H ) :   0.1582

-----------------------------------------------------------------------------
         ABSORPTION SPECTRUM VIA TRANSITION ELECTRIC DIPOLE MOMENTS
-----------------------------------------------------------------------------
State   Energy  Wavelength   fosc         T2         TX        TY        TZ
        (cm-1)    (nm)                  (au**2)     (au)      (au)      (au)
-----------------------------------------------------------------------------
   1    -476.8   -20974.8   -0.000000000   0.00000   0.00000   0.00002   0.00008
   2   23775.0    420.6   0.000040543   0.00056   0.00001   0.00001  -0.02369
   3   30693.2    325.8   0.073536326   0.78874   0.66222   0.59178  -0.00000
   4   30843.5    324.2   0.000000417   0.00000   0.00069   0.00059  -0.00190
   5   34021.8    293.9   0.000145780   0.00141   0.00312  -0.03743   0.00000
   6   35172.3    284.3   0.000003932   0.00004   0.00000  -0.00000   0.00607

Dispersion correction           -0.003117353
FINAL SINGLE POINT ENERGY      -306.983847616167

DIPOLE MOMENT
-------------
                                X             Y             Z
Electronic contribution:     -1.64479       1.21464      -0.00000
Nuclear contribution   :      1.84943      -1.59218       0.00000
                        -----------------------------------------
Total Dipole Moment    :      0.20464      -0.37754      -0.00000
                        -----------------------------------------
Magnitude (a.u.)       :      0.42943
Magnitude (Debye)      :      1.09153

                             ****ORCA TERMINATED NORMALLY****
TOTAL RUN TIME: 0 days 0 hours 4 minutes 0 seconds 969 msec
