                         Program Version 4.0.1.2 - RELEASE -
|  1> ! UKS wB97X-D3 def2-SVP RIJCOSX def2/JK SlowConv
|  2>
|  3>
|  4> %scf
|  5> 	MaxIter		500
|  6> 	STABPerform	True
|  7> end
|  8>
|  9> %tddft
| 10> 	NRoots 6
| 11> end
| 12>
| 13> * xyz 0 1
| 14>  C                 -1.18578599   -1.17301779    0.00000000
| 15>  C                 -1.22528521    0.21672485    0.00000000
| 16>  C                 -0.03021307    0.94488843    0.00000000
| 17>  C                  1.19387265    0.26897053    0.00000000
| 18>  C                  1.21998389   -1.12396818    0.00000000
| 19>  C                  0.03366349   -1.85245673    0.00000000
| 20>  H                 -2.12142076   -1.73821028    0.00000000
| 21>  H                 -2.17044776    0.76362561    0.00000000
| 22>  H                  2.12866956    0.83920121    0.00000000
| 23>  H                  2.18175171   -1.64285600    0.00000000
| 24>  H                  0.05704252   -2.94432740    0.00000000
| 25>  O                 -0.11105943    2.29589847    0.00000000
| 26>  H                  0.90300103    2.72213947    0.00000000
| 27> end
| 28>
| 29>                          ****END OF INPUT****

CARTESIAN COORDINATES (ANGSTROEM)
---------------------------------
  C     -1.185786   -1.173018    0.000000
  C     -1.225285    0.216725    0.000000
  C     -0.030213    0.944888    0.000000
  C      1.193873    0.268971    0.000000
  C      1.219984   -1.123968    0.000000
  C      0.033663   -1.852457    0.000000
  H     -2.121421   -1.738210    0.000000
  H     -2.170448    0.763626    0.000000
  H      2.128670    0.839201    0.000000
  H      2.181752   -1.642856    0.000000
  H      0.057043   -2.944327    0.000000
  O     -0.111059    2.295898    0.000000
  H      0.903001    2.722139    0.000000

 Total Charge           Charge          ....    0
 Multiplicity           Mult            ....    1
 Number of Electrons    NEL             ....   50
 Basis Dimension        Dim             ....  128

ORBITAL ENERGIES
----------------
                 SPIN UP ORBITALS
  NO   OCC          E(Eh)            E(eV)
   0   1.0000     -19.278781      -524.6023
   1   1.0000     -10.352453      -281.7046
   2   1.0000     -10.296455      -280.1808
   3   1.0000     -10.294872      -280.1377
   4   1.0000     -10.291627      -280.0494
   5   1.0000     -10.286089      -279.8987
   6   1.0000     -10.284884      -279.8659
   7   1.0000      -1.150553       -31.3081
   8   1.0000      -0.961576       -26.1658
   9   1.0000      -0.857564       -23.3355
  10   1.0000      -0.840693       -22.8764
  11   1.0000      -0.725187       -19.7333
  12   1.0000      -0.701336       -19.0843
  13   1.0000      -0.639917       -17.4130
  14   1.0000      -0.597330       -16.2542
  15   1.0000      -0.566954       -15.4276
  16   1.0000      -0.534876       -14.5547
  17   1.0000      -0.520822       -14.1723
  18   1.0000      -0.515943       -14.0395
  19   1.0000      -0.482264       -13.1231
  20   1.0000      -0.455105       -12.3840
  21   1.0000      -0.438170       -11.9232
  22   1.0000      -0.430583       -11.7168
  23   1.0000      -0.342988        -9.3332
  24   1.0000      -0.307117        -8.3571
  25   0.0000       0.068593         1.8665
  26   0.0000       0.086553         2.3552
  27   0.0000       0.104946         2.8557
  28   0.0000       0.151232         4.1152
  29   0.0000       0.191315         5.2059

                 SPIN DOWN ORBITALS
  NO   OCC          E(Eh)            E(eV)
   0   1.0000     -19.278781      -524.6023
   1   1.0000     -10.352453      -281.7046
   2   1.0000     -10.296455      -280.1808
   3   1.0000     -10.294872      -280.1377
   4   1.0000     -10.291627      -280.0494
   5   1.0000     -10.286089      -279.8987
   6   1.0000     -10.284884      -279.8659
   7   1.0000      -1.150553       -31.3081
   8   1.0000      -0.961576       -26.1658
   9   1.0000      -0.857564       -23.3355
  10   1.0000      -0.840693       -22.8764
  11   1.0000      -0.725187       -19.7333
  12   1.0000      -0.701336       -19.0843
  13   1.0000      -0.639917       -17.4130
  14   1.0000      -0.597330       -16.2542
  15   1.0000      -0.566954       -15.4276
  16   1.0000      -0.534876       -14.5547
  17   1.0000      -0.520822       -14.1723
  18   1.0000      -0.515943       -14.0395
  19   1.0000      -0.482264       -13.1231
  20   1.0000      -0.455105       -12.3840
  21   1.0000      -0.438170       -11.9232
  22   1.0000      -0.430583       -11.7168
  23   1.0000      -0.342988        -9.3332
  24   1.0000      -0.307117        -8.3571
  25   0.0000       0.068593         1.8665
  26   0.0000       0.086553         2.3552
  27   0.0000       0.104946         2.8557
  28   0.0000       0.151232         4.1152
  29   0.0000       0.191315         5.2059

MULLIKEN ATOMIC CHARGES AND SPIN POPULATIONS
--------------------------------------------
   0 C :   -0.010538    0.000000
   1 C :   -0.062295    0.000000
   2 C :    0.183822    0.000000
   3 C :   -0.098531    0.000000
   4 C :   -0.015038    0.000000
   5 C :   -0.033864    0.000000
   6 H :    0.023523    0.000000
   7 H :    0.019792    0.000000
   8 H :   -0.004131    0.000000
   9 H :    0.020841    0.000000
  10 H :    0.018244    0.000000
  11 O :   -0.285653    0.000000
  12 H :    0.243829    0.000000
Sum of atomic charges         :    0.0000000

LOEWDIN ATOMIC CHARGES AND SPIN POPULATIONS
-------------------------------------------
   0 C :   -0.015989    0.000000
   1 C :   -0.064015    0.000000
   2 C :    0.045154    0.000000
   3 C :   -0.094611    0.000000
   4 C :   -0.018001    0.000000
   5 C :   -0.063150    0.000000
   6 H :    0.034285    0.000000
   7 H :    0.037368    0.000000
   8 H :    0.025851    0.000000
   9 H :    0.033495    0.000000
  10 H :    0.030578    0.000000
  11 O :   -0.119378    0.000000
  12 H :    0.168414    0.000000

  Mayer bond orders larger than 0.1
B(  0-C ,  1-C ) :   1.4098 B(  0-C ,  5-C ) :   1.3839 B(  0-C ,  6-H ) :   0.9874
B(  1-C ,  2-C ) :   1.3644 B(  1-C ,  7-H ) :   0.9930 B(  2-C ,  3-C ) :   1.3421
B(  2-C , 11-O ) :   1.1647 B(  3-C ,  4-C ) :   1.3959 B(  3-C ,  8-H ) :   0.9842
B(  4-C ,  5-C ) :   1.4097 B(  4-C ,  9-H ) :   0.9844 B(  5-C , 10-H ) :   0.9917
B( 11-O , 12-H ) :   0.9159

-----------------------------------------------------------------------------
         ABSORPTION SPECTRUM VIA TRANSITION ELECTRIC DIPOLE MOMENTS
-----------------------------------------------------------------------------
State   Energy  Wavelength   fosc         T2         TX        TY        TZ
        (cm-1)    (nm)                  (au**2)     (au)      (au)      (au)
-----------------------------------------------------------------------------
   1   34009.2    294.0   0.000000000   0.00000  -0.00000  -0.00000  -0.00000
   2   35519.0    281.5   0.000000000   0.00000   0.00000  -0.00000   0.00000
   3   39377.8    254.0   0.000000000   0.00000  -0.00000   0.00000  -0.00000
   4   43671.2    229.0   0.039350763   0.29664   0.54329  -0.03841  -0.00000
   5   46405.4    215.5   0.000000000   0.00000  -0.00000   0.00000  -0.00000
   6   47927.3    208.6   0.000000000   0.00000  -0.00000   0.00000   0.00000

Dispersion correction           -0.002777716
FINAL SINGLE POINT ENERGY      -307.145874448264

DIPOLE MOMENT
-------------
                                X             Y             Z
Electronic contribution:     -0.38286       2.06922      -0.00000
Nuclear contribution   :      0.95936      -1.96630       0.00000
                        -----------------------------------------
Total Dipole Moment    :      0.57650       0.10292      -0.00000
                        -----------------------------------------
Magnitude (a.u.)       :      0.58561
Magnitude (Debye)      :      1.48851

                             ****ORCA TERMINATED NORMALLY****
TOTAL RUN TIME: 0 days 0 hours 2 minutes 28 seconds 62 msec
