                         Program Version 4.0.1.2 - RELEASE -
|  1> ! UKS wB97X-D3 def2-SVP RIJCOSX def2/JK SlowConv
|  2>
|  3>
|  4> %scf
|  5> 	MaxIter		500
|  6> 	STABPerform	True
|  7> end
|  8>
|  9> %tddft
| 10> 	NRoots 6
| 11> end
| 12>
| 13> * xyz 0 1
| 14>  C                 -1.18578599   -1.17301779    0.00000000
| 15>  C                 -1.22528521    0.21672485    0.00000000
| 16>  C                 -0.03021307    0.94488843    0.00000000
| 17>  C                  1.19387265    0.26897053    0.00000000
| 18>  C                  1.21998389   -1.12396818    0.00000000
| 19>  C                  0.03366349   -1.85245673    0.00000000
| 20>  H                 -2.12142076   -1.73821028    0.00000000
| 21>  H                 -2.17044776    0.76362561    0.00000000
| 22>  H                  2.12866956    0.83920121    0.00000000
| 23>  H                  2.18175171   -1.64285600    0.00000000
| 24>  H                  0.05704252   -2.94432740    0.00000000
| 25>  O                 -0.11105943    2.29589847    0.00000000
| 26>  H                  2.10143612    3.22587881    0.00000000
| 27> end
| 28>
| 29>                          ****END OF INPUT****

CARTESIAN COORDINATES (ANGSTROEM)
---------------------------------
  C     -1.185786   -1.173018    0.000000
  C     -1.225285    0.216725    0.000000
  C     -0.030213    0.944888    0.000000
  C      1.193873    0.268971    0.000000
  C      1.219984   -1.123968    0.000000
  C      0.033663   -1.852457    0.000000
  H     -2.121421   -1.738210    0.000000
  H     -2.170448    0.763626    0.000000
  H      2.128670    0.839201    0.000000
  H      2.181752   -1.642856    0.000000
  H      0.057043   -2.944327    0.000000
  O     -0.111059    2.295898    0.000000
  H      2.101436    3.225879    0.000000

 Total Charge           Charge          ....    0
 Multiplicity           Mult            ....    1
 Number of Electrons    NEL             ....   50
 Basis Dimension        Dim             ....  128

ORBITAL ENERGIES
----------------
                 SPIN UP ORBITALS
  NO   OCC          E(Eh)            E(eV)
   0   1.0000     -19.304898      -525.3130
   1   1.0000     -10.364470      -282.0316
   2   1.0000     -10.306099      -280.4432
   3   1.0000     -10.305669      -280.4315
   4   1.0000     -10.303567      -280.3743
   5   1.0000     -10.303213      -280.3647
   6   1.0000     -10.294148      -280.1180
   7   1.0000      -1.115896       -30.3651
   8   1.0000      -0.968022       -26.3412
   9   1.0000      -0.867001       -23.5923
  10   1.0000      -0.841342       -22.8941
  11   1.0000      -0.724837       -19.7238
  12   1.0000      -0.698724       -19.0133
  13   1.0000      -0.625188       -17.0122
  14   1.0000      -0.572463       -15.5775
  15   1.0000      -0.569333       -15.4923
  16   1.0000      -0.534665       -14.5490
  17   1.0000      -0.530187       -14.4271
  18   1.0000      -0.522705       -14.2235
  19   1.0000      -0.464802       -12.6479
  20   1.0000      -0.452560       -12.3148
  21   1.0000      -0.443162       -12.0591
  22   1.0000      -0.414973       -11.2920
  23   1.0000      -0.353089        -9.6080
  24   1.0000      -0.313739        -8.5373
  25   0.0000      -0.076314        -2.0766
  26   0.0000       0.059176         1.6103
  27   0.0000       0.077185         2.1003
  28   0.0000       0.145903         3.9702
  29   0.0000       0.185028         5.0349

                 SPIN DOWN ORBITALS
  NO   OCC          E(Eh)            E(eV)
   0   1.0000     -19.323101      -525.8083
   1   1.0000     -10.364192      -282.0240
   2   1.0000     -10.306245      -280.4472
   3   1.0000     -10.305714      -280.4327
   4   1.0000     -10.304243      -280.3927
   5   1.0000     -10.304219      -280.3921
   6   1.0000     -10.294064      -280.1157
   7   1.0000      -1.170155       -31.8415
   8   1.0000      -0.973177       -26.4815
   9   1.0000      -0.868956       -23.6455
  10   1.0000      -0.849334       -23.1116
  11   1.0000      -0.732343       -19.9281
  12   1.0000      -0.704479       -19.1699
  13   1.0000      -0.631166       -17.1749
  14   1.0000      -0.595034       -16.1917
  15   1.0000      -0.578902       -15.7527
  16   1.0000      -0.541798       -14.7431
  17   1.0000      -0.533838       -14.5265
  18   1.0000      -0.531169       -14.4538
  19   1.0000      -0.496305       -13.5052
  20   1.0000      -0.466273       -12.6879
  21   1.0000      -0.452862       -12.3230
  22   1.0000      -0.439699       -11.9648
  23   1.0000      -0.353399        -9.6165
  24   1.0000      -0.321547        -8.7497
  25   0.0000       0.026269         0.7148
  26   0.0000       0.058419         1.5897
  27   0.0000       0.075955         2.0668
  28   0.0000       0.146201         3.9783
  29   0.0000       0.186242         5.0679

MULLIKEN ATOMIC CHARGES AND SPIN POPULATIONS
--------------------------------------------
   0 C :   -0.007966   -0.006292
   1 C :   -0.068979   -0.042239
   2 C :    0.193860    0.044664
   3 C :   -0.076842   -0.025898
   4 C :   -0.010806   -0.003200
   5 C :   -0.032083    0.009375
   6 H :    0.030487   -0.003074
   7 H :    0.027143    0.000455
   8 H :    0.014325   -0.001292
   9 H :    0.028862   -0.002381
  10 H :    0.023275   -0.000224
  11 O :   -0.149223   -0.917329
  12 H :    0.027946    0.947434
Sum of atomic charges         :   -0.0000000

LOEWDIN ATOMIC CHARGES AND SPIN POPULATIONS
-------------------------------------------
   0 C :   -0.012183   -0.004788
   1 C :   -0.063575   -0.034058
   2 C :    0.023458   -0.001624
   3 C :   -0.070826   -0.019764
   4 C :   -0.012910   -0.001242
   5 C :   -0.059157    0.007378
   6 H :    0.037974   -0.002279
   7 H :    0.038789    0.000532
   8 H :    0.032562    0.005050
   9 H :    0.037773   -0.001856
  10 H :    0.032765    0.000164
  11 O :   -0.014445   -0.882302
  12 H :    0.029776    0.934788

  Mayer bond orders larger than 0.1
B(  0-C ,  1-C ) :   1.4058 B(  0-C ,  5-C ) :   1.3910 B(  0-C ,  6-H ) :   0.9855
B(  1-C ,  2-C ) :   1.3351 B(  1-C ,  7-H ) :   0.9922 B(  2-C ,  3-C ) :   1.3343
B(  2-C , 11-O ) :   1.1667 B(  3-C ,  4-C ) :   1.3968 B(  3-C ,  8-H ) :   0.9920
B(  4-C ,  5-C ) :   1.4020 B(  4-C ,  9-H ) :   0.9855 B(  5-C , 10-H ) :   0.9916

-----------------------------------------------------------------------------
         ABSORPTION SPECTRUM VIA TRANSITION ELECTRIC DIPOLE MOMENTS
-----------------------------------------------------------------------------
State   Energy  Wavelength   fosc         T2         TX        TY        TZ
        (cm-1)    (nm)                  (au**2)     (au)      (au)      (au)
-----------------------------------------------------------------------------
   1   -1318.0   -7587.0   -0.000000000   0.00000   0.00000   0.00003   0.00018
   2   23121.3    432.5   0.000036587   0.00052   0.00001   0.00001  -0.02282
   3   30132.9    331.9   0.000000138   0.00000  -0.00008  -0.00009   0.00122
   4   31272.2    319.8   0.049696729   0.52317   0.55816   0.46004  -0.00000
   5   34033.0    293.8   0.000162820   0.00158  -0.00297   0.03957   0.00000
   6   35606.5    280.8   0.000385995   0.00357  -0.05898  -0.00949  -0.00000

Dispersion correction           -0.003178791
FINAL SINGLE POINT ENERGY      -306.980801341459

DIPOLE MOMENT
-------------
                                X             Y             Z
Electronic contribution:     -1.87947       1.08034      -0.00000
Nuclear contribution   :      2.01126      -1.52415       0.00000
                        -----------------------------------------
Total Dipole Moment    :      0.13179      -0.44381      -0.00000
                        -----------------------------------------
Magnitude (a.u.)       :      0.46297
Magnitude (Debye)      :      1.17677

                             ****ORCA TERMINATED NORMALLY****
TOTAL RUN TIME: 0 days 0 hours 4 minutes 4 seconds 455 msec
