                         Program Version 4.0.1.2 - RELEASE -
|  1> ! UKS wB97X-D3 def2-SVP RIJCOSX def2/JK SlowConv
|  2>
|  3>
|  4> %scf
|  5> 	MaxIter		500
|  6> 	STABPerform	True
|  7> end
|  8>
|  9> %tddft
| 10> 	NRoots 6
| 11> end
| 12>
| 13> * xyz 0 1
| 14>  C                 -1.18578599   -1.17301779    0.00000000
| 15>  C                 -1.22528521    0.21672485    0.00000000
| 16>  C                 -0.03021307    0.94488843    0.00000000
| 17>  C                  1.19387265    0.26897053    0.00000000
| 18>  C                  1.21998389   -1.12396818    0.00000000
| 19>  C                  0.03366349   -1.85245673    0.00000000
| 20>  H                 -2.12142076   -1.73821028    0.00000000
| 21>  H                 -2.17044776    0.76362561    0.00000000
| 22>  H                  2.12866956    0.83920121    0.00000000
| 23>  H                  2.18175171   -1.64285600    0.00000000
| 24>  H                  0.05704252   -2.94432740    0.00000000
| 25>  O                 -0.11105943    2.29589847    0.00000000
| 26>  H                  0.76472006    2.66401569    0.00000000
| 27> end
| 28>
| 29>                          ****END OF INPUT****

CARTESIAN COORDINATES (ANGSTROEM)
---------------------------------
  C     -1.185786   -1.173018    0.000000
  C     -1.225285    0.216725    0.000000
  C     -0.030213    0.944888    0.000000
  C      1.193873    0.268971    0.000000
  C      1.219984   -1.123968    0.000000
  C      0.033663   -1.852457    0.000000
  H     -2.121421   -1.738210    0.000000
  H     -2.170448    0.763626    0.000000
  H      2.128670    0.839201    0.000000
  H      2.181752   -1.642856    0.000000
  H      0.057043   -2.944327    0.000000
  O     -0.111059    2.295898    0.000000
  H      0.764720    2.664016    0.000000

 Total Charge           Charge          ....    0
 Multiplicity           Mult            ....    1
 Number of Electrons    NEL             ....   50
 Basis Dimension        Dim             ....  128

ORBITAL ENERGIES
----------------
                 SPIN UP ORBITALS
  NO   OCC          E(Eh)            E(eV)
   0   1.0000     -19.270676      -524.3818
   1   1.0000     -10.353429      -281.7311
   2   1.0000     -10.297203      -280.2011
   3   1.0000     -10.295380      -280.1515
   4   1.0000     -10.292539      -280.0742
   5   1.0000     -10.286464      -279.9089
   6   1.0000     -10.285958      -279.8951
   7   1.0000      -1.172822       -31.9141
   8   1.0000      -0.964010       -26.2320
   9   1.0000      -0.858520       -23.3615
  10   1.0000      -0.846457       -23.0333
  11   1.0000      -0.732655       -19.9365
  12   1.0000      -0.707157       -19.2427
  13   1.0000      -0.651013       -17.7150
  14   1.0000      -0.600597       -16.3431
  15   1.0000      -0.568855       -15.4793
  16   1.0000      -0.536777       -14.6065
  17   1.0000      -0.521300       -14.1853
  18   1.0000      -0.519071       -14.1246
  19   1.0000      -0.488093       -13.2817
  20   1.0000      -0.456347       -12.4178
  21   1.0000      -0.440784       -11.9944
  22   1.0000      -0.432337       -11.7645
  23   1.0000      -0.343582        -9.3493
  24   1.0000      -0.309402        -8.4193
  25   0.0000       0.067971         1.8496
  26   0.0000       0.085194         2.3182
  27   0.0000       0.141136         3.8405
  28   0.0000       0.154471         4.2034
  29   0.0000       0.192751         5.2450

                 SPIN DOWN ORBITALS
  NO   OCC          E(Eh)            E(eV)
   0   1.0000     -19.270676      -524.3818
   1   1.0000     -10.353429      -281.7311
   2   1.0000     -10.297203      -280.2011
   3   1.0000     -10.295380      -280.1515
   4   1.0000     -10.292539      -280.0742
   5   1.0000     -10.286464      -279.9089
   6   1.0000     -10.285958      -279.8951
   7   1.0000      -1.172822       -31.9141
   8   1.0000      -0.964010       -26.2320
   9   1.0000      -0.858520       -23.3615
  10   1.0000      -0.846457       -23.0333
  11   1.0000      -0.732655       -19.9365
  12   1.0000      -0.707157       -19.2427
  13   1.0000      -0.651013       -17.7150
  14   1.0000      -0.600597       -16.3431
  15   1.0000      -0.568855       -15.4793
  16   1.0000      -0.536777       -14.6065
  17   1.0000      -0.521300       -14.1853
  18   1.0000      -0.519071       -14.1246
  19   1.0000      -0.488093       -13.2817
  20   1.0000      -0.456347       -12.4178
  21   1.0000      -0.440784       -11.9944
  22   1.0000      -0.432337       -11.7645
  23   1.0000      -0.343582        -9.3493
  24   1.0000      -0.309402        -8.4193
  25   0.0000       0.067971         1.8496
  26   0.0000       0.085194         2.3182
  27   0.0000       0.141136         3.8405
  28   0.0000       0.154471         4.2034
  29   0.0000       0.192751         5.2450

MULLIKEN ATOMIC CHARGES AND SPIN POPULATIONS
--------------------------------------------
   0 C :   -0.011100    0.000000
   1 C :   -0.060075    0.000000
   2 C :    0.152296    0.000000
   3 C :   -0.091604    0.000000
   4 C :   -0.015312    0.000000
   5 C :   -0.032687    0.000000
   6 H :    0.023639    0.000000
   7 H :    0.020044    0.000000
   8 H :    0.000445    0.000000
   9 H :    0.021476    0.000000
  10 H :    0.018775    0.000000
  11 O :   -0.201873    0.000000
  12 H :    0.175975    0.000000
Sum of atomic charges         :   -0.0000000

LOEWDIN ATOMIC CHARGES AND SPIN POPULATIONS
-------------------------------------------
   0 C :   -0.016398    0.000000
   1 C :   -0.062277    0.000000
   2 C :    0.052131    0.000000
   3 C :   -0.091864    0.000000
   4 C :   -0.017990    0.000000
   5 C :   -0.061543    0.000000
   6 H :    0.034266    0.000000
   7 H :    0.037583    0.000000
   8 H :    0.027767    0.000000
   9 H :    0.033742    0.000000
  10 H :    0.030804    0.000000
  11 O :   -0.049180    0.000000
  12 H :    0.082958    0.000000

  Mayer bond orders larger than 0.1
B(  0-C ,  1-C ) :   1.4085 B(  0-C ,  5-C ) :   1.3841 B(  0-C ,  6-H ) :   0.9874
B(  1-C ,  2-C ) :   1.3658 B(  1-C ,  7-H ) :   0.9936 B(  2-C ,  3-C ) :   1.3437
B(  2-C , 11-O ) :   1.1811 B(  3-C ,  4-C ) :   1.3954 B(  3-C ,  8-H ) :   0.9851
B(  4-C ,  5-C ) :   1.4099 B(  4-C ,  9-H ) :   0.9847 B(  5-C , 10-H ) :   0.9918
B( 11-O , 12-H ) :   0.9718

-----------------------------------------------------------------------------
         ABSORPTION SPECTRUM VIA TRANSITION ELECTRIC DIPOLE MOMENTS
-----------------------------------------------------------------------------
State   Energy  Wavelength   fosc         T2         TX        TY        TZ
        (cm-1)    (nm)                  (au**2)     (au)      (au)      (au)
-----------------------------------------------------------------------------
   1   34051.3    293.7   0.000000000   0.00000  -0.00000   0.00000   0.00000
   2   35794.8    279.4   0.000000000   0.00000   0.00000   0.00000   0.00000
   3   39431.9    253.6   0.000000000   0.00000  -0.00000  -0.00000  -0.00000
   4   43841.3    228.1   0.037208542   0.27941  -0.52786   0.02773   0.00000
   5   46235.7    216.3   0.000000000   0.00000   0.00000  -0.00000   0.00000
   6   52343.6    191.0   0.034516645   0.21709  -0.04774  -0.46348  -0.00000

Dispersion correction           -0.002792604
FINAL SINGLE POINT ENERGY      -307.159599002548

DIPOLE MOMENT
-------------
                                X             Y             Z
Electronic contribution:     -0.31172       2.07945      -0.00000
Nuclear contribution   :      0.83799      -2.01732       0.00000
                        -----------------------------------------
Total Dipole Moment    :      0.52627       0.06213      -0.00000
                        -----------------------------------------
Magnitude (a.u.)       :      0.52992
Magnitude (Debye)      :      1.34696

                             ****ORCA TERMINATED NORMALLY****
TOTAL RUN TIME: 0 days 0 hours 2 minutes 26 seconds 291 msec
