                         Program Version 4.0.1.2 - RELEASE -
|  1> ! UKS wB97X-D3 def2-SVP RIJCOSX def2/JK SlowConv
|  2>
|  3>
|  4> %scf
|  5> 	MaxIter		500
|  6> 	STABPerform	True
|  7> end
|  8>
|  9> %tddft
| 10> 	NRoots 6
| 11> end
| 12>
| 13> * xyz 0 1
| 14>  C                 -1.18578599   -1.17301779    0.00000000
| 15>  C                 -1.22528521    0.21672485    0.00000000
| 16>  C                 -0.03021307    0.94488843    0.00000000
| 17>  C                  1.19387265    0.26897053    0.00000000
| 18>  C                  1.21998389   -1.12396818    0.00000000
| 19>  C                  0.03366349   -1.85245673    0.00000000
| 20>  H                 -2.12142076   -1.73821028    0.00000000
| 21>  H                 -2.17044776    0.76362561    0.00000000
| 22>  H                  2.12866956    0.83920121    0.00000000
| 23>  H                  2.18175171   -1.64285600    0.00000000
| 24>  H                  0.05704252   -2.94432740    0.00000000
| 25>  O                 -0.11105943    2.29589847    0.00000000
| 26>  H                  0.81081372    2.68339028    0.00000000
| 27> end
| 28>
| 29>                          ****END OF INPUT****

CARTESIAN COORDINATES (ANGSTROEM)
---------------------------------
  C     -1.185786   -1.173018    0.000000
  C     -1.225285    0.216725    0.000000
  C     -0.030213    0.944888    0.000000
  C      1.193873    0.268971    0.000000
  C      1.219984   -1.123968    0.000000
  C      0.033663   -1.852457    0.000000
  H     -2.121421   -1.738210    0.000000
  H     -2.170448    0.763626    0.000000
  H      2.128670    0.839201    0.000000
  H      2.181752   -1.642856    0.000000
  H      0.057043   -2.944327    0.000000
  O     -0.111059    2.295898    0.000000
  H      0.810814    2.683390    0.000000

 Total Charge           Charge          ....    0
 Multiplicity           Mult            ....    1
 Number of Electrons    NEL             ....   50
 Basis Dimension        Dim             ....  128

ORBITAL ENERGIES
----------------
                 SPIN UP ORBITALS
  NO   OCC          E(Eh)            E(eV)
   0   1.0000     -19.273817      -524.4672
   1   1.0000     -10.353031      -281.7203
   2   1.0000     -10.296929      -280.1937
   3   1.0000     -10.295189      -280.1463
   4   1.0000     -10.292151      -280.0637
   5   1.0000     -10.286262      -279.9034
   6   1.0000     -10.285580      -279.8849
   7   1.0000      -1.164168       -31.6786
   8   1.0000      -0.963075       -26.2066
   9   1.0000      -0.858121       -23.3506
  10   1.0000      -0.844250       -22.9732
  11   1.0000      -0.729595       -19.8533
  12   1.0000      -0.705204       -19.1896
  13   1.0000      -0.647439       -17.6177
  14   1.0000      -0.599652       -16.3174
  15   1.0000      -0.568170       -15.4607
  16   1.0000      -0.536145       -14.5893
  17   1.0000      -0.521098       -14.1798
  18   1.0000      -0.517930       -14.0936
  19   1.0000      -0.486154       -13.2289
  20   1.0000      -0.455897       -12.4056
  21   1.0000      -0.439848       -11.9689
  22   1.0000      -0.431735       -11.7481
  23   1.0000      -0.343342        -9.3428
  24   1.0000      -0.308571        -8.3966
  25   0.0000       0.068218         1.8563
  26   0.0000       0.085696         2.3319
  27   0.0000       0.131671         3.5830
  28   0.0000       0.152376         4.1464
  29   0.0000       0.192189         5.2297

                 SPIN DOWN ORBITALS
  NO   OCC          E(Eh)            E(eV)
   0   1.0000     -19.273817      -524.4672
   1   1.0000     -10.353031      -281.7203
   2   1.0000     -10.296929      -280.1937
   3   1.0000     -10.295189      -280.1463
   4   1.0000     -10.292151      -280.0637
   5   1.0000     -10.286262      -279.9034
   6   1.0000     -10.285580      -279.8849
   7   1.0000      -1.164168       -31.6786
   8   1.0000      -0.963075       -26.2066
   9   1.0000      -0.858121       -23.3506
  10   1.0000      -0.844250       -22.9732
  11   1.0000      -0.729595       -19.8533
  12   1.0000      -0.705204       -19.1896
  13   1.0000      -0.647439       -17.6177
  14   1.0000      -0.599652       -16.3174
  15   1.0000      -0.568170       -15.4607
  16   1.0000      -0.536145       -14.5893
  17   1.0000      -0.521098       -14.1798
  18   1.0000      -0.517930       -14.0936
  19   1.0000      -0.486154       -13.2289
  20   1.0000      -0.455897       -12.4056
  21   1.0000      -0.439848       -11.9689
  22   1.0000      -0.431735       -11.7481
  23   1.0000      -0.343342        -9.3428
  24   1.0000      -0.308571        -8.3966
  25   0.0000       0.068218         1.8563
  26   0.0000       0.085696         2.3319
  27   0.0000       0.131671         3.5830
  28   0.0000       0.152376         4.1464
  29   0.0000       0.192189         5.2297

MULLIKEN ATOMIC CHARGES AND SPIN POPULATIONS
--------------------------------------------
   0 C :   -0.010914    0.000000
   1 C :   -0.060878    0.000000
   2 C :    0.163148    0.000000
   3 C :   -0.094056    0.000000
   4 C :   -0.015219    0.000000
   5 C :   -0.033136    0.000000
   6 H :    0.023575    0.000000
   7 H :    0.019912    0.000000
   8 H :   -0.001110    0.000000
   9 H :    0.021236    0.000000
  10 H :    0.018576    0.000000
  11 O :   -0.233789    0.000000
  12 H :    0.202654    0.000000
Sum of atomic charges         :   -0.0000000

LOEWDIN ATOMIC CHARGES AND SPIN POPULATIONS
-------------------------------------------
   0 C :   -0.016273    0.000000
   1 C :   -0.062935    0.000000
   2 C :    0.049582    0.000000
   3 C :   -0.092949    0.000000
   4 C :   -0.018001    0.000000
   5 C :   -0.062141    0.000000
   6 H :    0.034259    0.000000
   7 H :    0.037494    0.000000
   8 H :    0.027099    0.000000
   9 H :    0.033646    0.000000
  10 H :    0.030718    0.000000
  11 O :   -0.075738    0.000000
  12 H :    0.115240    0.000000

  Mayer bond orders larger than 0.1
B(  0-C ,  1-C ) :   1.4090 B(  0-C ,  5-C ) :   1.3840 B(  0-C ,  6-H ) :   0.9874
B(  1-C ,  2-C ) :   1.3654 B(  1-C ,  7-H ) :   0.9934 B(  2-C ,  3-C ) :   1.3432
B(  2-C , 11-O ) :   1.1765 B(  3-C ,  4-C ) :   1.3956 B(  3-C ,  8-H ) :   0.9847
B(  4-C ,  5-C ) :   1.4099 B(  4-C ,  9-H ) :   0.9846 B(  5-C , 10-H ) :   0.9918
B( 11-O , 12-H ) :   0.9510

-----------------------------------------------------------------------------
         ABSORPTION SPECTRUM VIA TRANSITION ELECTRIC DIPOLE MOMENTS
-----------------------------------------------------------------------------
State   Energy  Wavelength   fosc         T2         TX        TY        TZ
        (cm-1)    (nm)                  (au**2)     (au)      (au)      (au)
-----------------------------------------------------------------------------
   1   34036.5    293.8   0.000000000   0.00000  -0.00000   0.00000   0.00000
   2   35697.9    280.1   0.000000000   0.00000   0.00000   0.00000  -0.00000
   3   39412.3    253.7   0.000000000   0.00000  -0.00000   0.00000   0.00000
   4   43782.8    228.4   0.038031670   0.28597  -0.53388   0.03074   0.00000
   5   46293.9    216.0   0.000000000   0.00000  -0.00000   0.00000   0.00000
   6   52282.6    191.3   0.037286984   0.23479   0.05108   0.48185   0.00000

Dispersion correction           -0.002786797
FINAL SINGLE POINT ENERGY      -307.158420908298

DIPOLE MOMENT
-------------
                                X             Y             Z
Electronic contribution:     -0.33451       2.07854      -0.00000
Nuclear contribution   :      0.87845      -2.00031       0.00000
                        -----------------------------------------
Total Dipole Moment    :      0.54394       0.07823      -0.00000
                        -----------------------------------------
Magnitude (a.u.)       :      0.54953
Magnitude (Debye)      :      1.39681

                             ****ORCA TERMINATED NORMALLY****
TOTAL RUN TIME: 0 days 0 hours 2 minutes 26 seconds 291 msec
