                         Program Version 4.0.1.2 - RELEASE -
|  1> ! UKS wB97X-D3 def2-SVP RIJCOSX def2/JK SlowConv
|  2>
|  3>
|  4> %scf
|  5> 	MaxIter		500
|  6> 	STABPerform	True
|  7> end
|  8>
|  9> %tddft
| 10> 	NRoots 6
| 11> end
| 12>
| 13> * xyz 0 1
| 14>  C                 -1.18578599   -1.17301779    0.00000000
| 15>  C                 -1.22528521    0.21672485    0.00000000
| 16>  C                 -0.03021307    0.94488843    0.00000000
| 17>  C                  1.19387265    0.26897053    0.00000000
| 18>  C                  1.21998389   -1.12396818    0.00000000
| 19>  C                  0.03366349   -1.85245673    0.00000000
| 20>  H                 -2.12142076   -1.73821028    0.00000000
| 21>  H                 -2.17044776    0.76362561    0.00000000
| 22>  H                  2.12866956    0.83920121    0.00000000
| 23>  H                  2.18175171   -1.64285600    0.00000000
| 24>  H                  0.05704252   -2.94432740    0.00000000
| 25>  O                 -0.11105943    2.29589847    0.00000000
| 26>  H                  1.54831223    2.99338373    0.00000000
| 27> end
| 28>
| 29>                          ****END OF INPUT****

CARTESIAN COORDINATES (ANGSTROEM)
---------------------------------
  C     -1.185786   -1.173018    0.000000
  C     -1.225285    0.216725    0.000000
  C     -0.030213    0.944888    0.000000
  C      1.193873    0.268971    0.000000
  C      1.219984   -1.123968    0.000000
  C      0.033663   -1.852457    0.000000
  H     -2.121421   -1.738210    0.000000
  H     -2.170448    0.763626    0.000000
  H      2.128670    0.839201    0.000000
  H      2.181752   -1.642856    0.000000
  H      0.057043   -2.944327    0.000000
  O     -0.111059    2.295898    0.000000
  H      1.548312    2.993384    0.000000

 Total Charge           Charge          ....    0
 Multiplicity           Mult            ....    1
 Number of Electrons    NEL             ....   50
 Basis Dimension        Dim             ....  128

ORBITAL ENERGIES
----------------
                 SPIN UP ORBITALS
  NO   OCC          E(Eh)            E(eV)
   0   1.0000     -19.294009      -525.0167
   1   1.0000     -10.355812      -281.7960
   2   1.0000     -10.299635      -280.2673
   3   1.0000     -10.299597      -280.2663
   4   1.0000     -10.296004      -280.1685
   5   1.0000     -10.294132      -280.1176
   6   1.0000     -10.287874      -279.9473
   7   1.0000      -1.112669       -30.2773
   8   1.0000      -0.961980       -26.1768
   9   1.0000      -0.860855       -23.4251
  10   1.0000      -0.835857       -22.7448
  11   1.0000      -0.720123       -19.5955
  12   1.0000      -0.693848       -18.8806
  13   1.0000      -0.620031       -16.8719
  14   1.0000      -0.573163       -15.5965
  15   1.0000      -0.565110       -15.3774
  16   1.0000      -0.529638       -14.4122
  17   1.0000      -0.524757       -14.2794
  18   1.0000      -0.513705       -13.9786
  19   1.0000      -0.462411       -12.5828
  20   1.0000      -0.449585       -12.2338
  21   1.0000      -0.435569       -11.8524
  22   1.0000      -0.419486       -11.4148
  23   1.0000      -0.346935        -9.4406
  24   1.0000      -0.305988        -8.3263
  25   0.0000      -0.063481        -1.7274
  26   0.0000       0.065147         1.7728
  27   0.0000       0.084425         2.2973
  28   0.0000       0.148667         4.0454
  29   0.0000       0.187543         5.1033

                 SPIN DOWN ORBITALS
  NO   OCC          E(Eh)            E(eV)
   0   1.0000     -19.305270      -525.3231
   1   1.0000     -10.355600      -281.7902
   2   1.0000     -10.299738      -280.2701
   3   1.0000     -10.299563      -280.2654
   4   1.0000     -10.296224      -280.1745
   5   1.0000     -10.294810      -280.1360
   6   1.0000     -10.287816      -279.9457
   7   1.0000      -1.145811       -31.1791
   8   1.0000      -0.964957       -26.2578
   9   1.0000      -0.861830       -23.4516
  10   1.0000      -0.840405       -22.8686
  11   1.0000      -0.724077       -19.7031
  12   1.0000      -0.696717       -18.9586
  13   1.0000      -0.623166       -16.9572
  14   1.0000      -0.583563       -15.8796
  15   1.0000      -0.569368       -15.4933
  16   1.0000      -0.533474       -14.5166
  17   1.0000      -0.525088       -14.2884
  18   1.0000      -0.520077       -14.1520
  19   1.0000      -0.475475       -12.9383
  20   1.0000      -0.459505       -12.5038
  21   1.0000      -0.442006       -12.0276
  22   1.0000      -0.429580       -11.6895
  23   1.0000      -0.347022        -9.4430
  24   1.0000      -0.311150        -8.4668
  25   0.0000      -0.043323        -1.1789
  26   0.0000       0.064747         1.7619
  27   0.0000       0.083640         2.2759
  28   0.0000       0.148252         4.0341
  29   0.0000       0.187590         5.1046

MULLIKEN ATOMIC CHARGES AND SPIN POPULATIONS
--------------------------------------------
   0 C :   -0.008474   -0.004798
   1 C :   -0.067474   -0.026979
   2 C :    0.225763    0.026174
   3 C :   -0.092056   -0.007260
   4 C :   -0.013877   -0.000585
   5 C :   -0.034751    0.006375
   6 H :    0.027057   -0.002005
   7 H :    0.023597    0.000520
   8 H :   -0.007957   -0.002722
   9 H :    0.023716   -0.001285
  10 H :    0.019955   -0.000132
  11 O :   -0.264103   -0.578553
  12 H :    0.168605    0.591250
Sum of atomic charges         :   -0.0000000

LOEWDIN ATOMIC CHARGES AND SPIN POPULATIONS
-------------------------------------------
   0 C :   -0.013609   -0.003764
   1 C :   -0.064802   -0.021740
   2 C :    0.030552    0.000028
   3 C :   -0.084247   -0.005143
   4 C :   -0.016196    0.000994
   5 C :   -0.063816    0.005049
   6 H :    0.036362   -0.001499
   7 H :    0.037994    0.000396
   8 H :    0.024874    0.003372
   9 H :    0.035253   -0.001021
  10 H :    0.031357    0.000141
  11 O :   -0.117114   -0.536153
  12 H :    0.163391    0.559340

  Mayer bond orders larger than 0.1
B(  0-C ,  1-C ) :   1.4073 B(  0-C ,  5-C ) :   1.3881 B(  0-C ,  6-H ) :   0.9861
B(  1-C ,  2-C ) :   1.3435 B(  1-C ,  7-H ) :   0.9922 B(  2-C ,  3-C ) :   1.3319
B(  2-C , 11-O ) :   1.1501 B(  3-C ,  4-C ) :   1.3980 B(  3-C ,  8-H ) :   0.9853
B(  4-C ,  5-C ) :   1.4041 B(  4-C ,  9-H ) :   0.9841 B(  5-C , 10-H ) :   0.9915
B( 11-O , 12-H ) :   0.5558

-----------------------------------------------------------------------------
         ABSORPTION SPECTRUM VIA TRANSITION ELECTRIC DIPOLE MOMENTS
-----------------------------------------------------------------------------
State   Energy  Wavelength   fosc         T2         TX        TY        TZ
        (cm-1)    (nm)                  (au**2)     (au)      (au)      (au)
-----------------------------------------------------------------------------
   1    4145.6   2412.2   0.000000001   0.00000  -0.00000   0.00000   0.00024
   2   21312.6    469.2   0.000000241   0.00000  -0.00000   0.00000  -0.00193
   3   26383.4    379.0   0.039148985   0.48850   0.51395   0.47367  -0.00000
   4   26892.5    371.9   0.000054760   0.00067   0.00006   0.00005   0.02589
   5   33973.5    294.3   0.000233389   0.00226  -0.01654  -0.04459   0.00000
   6   34813.6    287.2   0.000014460   0.00014  -0.00000  -0.00001   0.01169

Dispersion correction           -0.003009627
FINAL SINGLE POINT ENERGY      -307.005873330152

DIPOLE MOMENT
-------------
                                X             Y             Z
Electronic contribution:     -1.03459       1.63216      -0.00000
Nuclear contribution   :      1.52577      -1.72822       0.00000
                        -----------------------------------------
Total Dipole Moment    :      0.49118      -0.09606      -0.00000
                        -----------------------------------------
Magnitude (a.u.)       :      0.50049
Magnitude (Debye)      :      1.27213

                             ****ORCA TERMINATED NORMALLY****
TOTAL RUN TIME: 0 days 0 hours 4 minutes 8 seconds 92 msec
