                         Program Version 4.0.1.2 - RELEASE -
|  1> ! UKS wB97X-D3 def2-SVP RIJCOSX def2/JK SlowConv
|  2>
|  3>
|  4> %scf
|  5> 	MaxIter		500
|  6> 	STABPerform	True
|  7> end
|  8>
|  9> %tddft
| 10> 	NRoots 6
| 11> end
| 12>
| 13> * xyz 0 1
| 14>  C                 -1.18578599   -1.17301779    0.00000000
| 15>  C                 -1.22528521    0.21672485    0.00000000
| 16>  C                 -0.03021307    0.94488843    0.00000000
| 17>  C                  1.19387265    0.26897053    0.00000000
| 18>  C                  1.21998389   -1.12396818    0.00000000
| 19>  C                  0.03366349   -1.85245673    0.00000000
| 20>  H                 -2.12142076   -1.73821028    0.00000000
| 21>  H                 -2.17044776    0.76362561    0.00000000
| 22>  H                  2.12866956    0.83920121    0.00000000
| 23>  H                  2.18175171   -1.64285600    0.00000000
| 24>  H                  0.05704252   -2.94432740    0.00000000
| 25>  O                 -0.11105943    2.29589847    0.00000000
| 26>  H                  0.62643908    2.60589192    0.00000000
| 27> end
| 28>
| 29>                          ****END OF INPUT****

CARTESIAN COORDINATES (ANGSTROEM)
---------------------------------
  C     -1.185786   -1.173018    0.000000
  C     -1.225285    0.216725    0.000000
  C     -0.030213    0.944888    0.000000
  C      1.193873    0.268971    0.000000
  C      1.219984   -1.123968    0.000000
  C      0.033663   -1.852457    0.000000
  H     -2.121421   -1.738210    0.000000
  H     -2.170448    0.763626    0.000000
  H      2.128670    0.839201    0.000000
  H      2.181752   -1.642856    0.000000
  H      0.057043   -2.944327    0.000000
  O     -0.111059    2.295898    0.000000
  H      0.626439    2.605892    0.000000

 Total Charge           Charge          ....    0
 Multiplicity           Mult            ....    1
 Number of Electrons    NEL             ....   50
 Basis Dimension        Dim             ....  128

ORBITAL ENERGIES
----------------
                 SPIN UP ORBITALS
  NO   OCC          E(Eh)            E(eV)
   0   1.0000     -19.258500      -524.0504
   1   1.0000     -10.354992      -281.7737
   2   1.0000     -10.298220      -280.2288
   3   1.0000     -10.296182      -280.1734
   4   1.0000     -10.294106      -280.1169
   5   1.0000     -10.287563      -279.9388
   6   1.0000     -10.287296      -279.9316
   7   1.0000      -1.208550       -32.8863
   8   1.0000      -0.967606       -26.3299
   9   1.0000      -0.860898       -23.4262
  10   1.0000      -0.854355       -23.2482
  11   1.0000      -0.745297       -20.2806
  12   1.0000      -0.712193       -19.3797
  13   1.0000      -0.660097       -17.9622
  14   1.0000      -0.602917       -16.4062
  15   1.0000      -0.571206       -15.5433
  16   1.0000      -0.538685       -14.6584
  17   1.0000      -0.523090       -14.2340
  18   1.0000      -0.522159       -14.2087
  19   1.0000      -0.494034       -13.4433
  20   1.0000      -0.457906       -12.4603
  21   1.0000      -0.443975       -12.0812
  22   1.0000      -0.434296       -11.8178
  23   1.0000      -0.344545        -9.3755
  24   1.0000      -0.312281        -8.4976
  25   0.0000       0.067009         1.8234
  26   0.0000       0.083418         2.2699
  27   0.0000       0.148029         4.0281
  28   0.0000       0.170770         4.6469
  29   0.0000       0.195140         5.3100

                 SPIN DOWN ORBITALS
  NO   OCC          E(Eh)            E(eV)
   0   1.0000     -19.258500      -524.0504
   1   1.0000     -10.354992      -281.7737
   2   1.0000     -10.298220      -280.2288
   3   1.0000     -10.296182      -280.1734
   4   1.0000     -10.294106      -280.1169
   5   1.0000     -10.287563      -279.9388
   6   1.0000     -10.287296      -279.9316
   7   1.0000      -1.208550       -32.8863
   8   1.0000      -0.967606       -26.3299
   9   1.0000      -0.860898       -23.4262
  10   1.0000      -0.854355       -23.2482
  11   1.0000      -0.745297       -20.2806
  12   1.0000      -0.712193       -19.3797
  13   1.0000      -0.660097       -17.9622
  14   1.0000      -0.602917       -16.4062
  15   1.0000      -0.571206       -15.5433
  16   1.0000      -0.538685       -14.6584
  17   1.0000      -0.523090       -14.2340
  18   1.0000      -0.522159       -14.2087
  19   1.0000      -0.494034       -13.4433
  20   1.0000      -0.457906       -12.4603
  21   1.0000      -0.443975       -12.0812
  22   1.0000      -0.434296       -11.8178
  23   1.0000      -0.344545        -9.3755
  24   1.0000      -0.312281        -8.4976
  25   0.0000       0.067009         1.8234
  26   0.0000       0.083418         2.2699
  27   0.0000       0.148029         4.0281
  28   0.0000       0.170770         4.6469
  29   0.0000       0.195140         5.3100

MULLIKEN ATOMIC CHARGES AND SPIN POPULATIONS
--------------------------------------------
   0 C :   -0.011679    0.000000
   1 C :   -0.057410    0.000000
   2 C :    0.119464    0.000000
   3 C :   -0.083165    0.000000
   4 C :   -0.015544    0.000000
   5 C :   -0.031126    0.000000
   6 H :    0.023991    0.000000
   7 H :    0.020730    0.000000
   8 H :    0.005069    0.000000
   9 H :    0.022357    0.000000
  10 H :    0.019496    0.000000
  11 O :   -0.086687    0.000000
  12 H :    0.074503    0.000000
Sum of atomic charges         :   -0.0000000

LOEWDIN ATOMIC CHARGES AND SPIN POPULATIONS
-------------------------------------------
   0 C :   -0.016710    0.000000
   1 C :   -0.059923    0.000000
   2 C :    0.061635    0.000000
   3 C :   -0.087699    0.000000
   4 C :   -0.017903    0.000000
   5 C :   -0.059528    0.000000
   6 H :    0.034376    0.000000
   7 H :    0.037958    0.000000
   8 H :    0.029860    0.000000
   9 H :    0.034112    0.000000
  10 H :    0.031119    0.000000
  11 O :    0.049616    0.000000
  12 H :   -0.036913    0.000000

  Mayer bond orders larger than 0.1
B(  0-C ,  1-C ) :   1.4068 B(  0-C ,  5-C ) :   1.3845 B(  0-C ,  6-H ) :   0.9874
B(  1-C ,  2-C ) :   1.3673 B(  1-C ,  7-H ) :   0.9941 B(  2-C ,  3-C ) :   1.3453
B(  2-C , 11-O ) :   1.1857 B(  3-C ,  4-C ) :   1.3946 B(  3-C ,  8-H ) :   0.9862
B(  4-C ,  5-C ) :   1.4101 B(  4-C ,  9-H ) :   0.9852 B(  5-C , 10-H ) :   0.9918
B( 11-O , 12-H ) :   1.0424

-----------------------------------------------------------------------------
         ABSORPTION SPECTRUM VIA TRANSITION ELECTRIC DIPOLE MOMENTS
-----------------------------------------------------------------------------
State   Energy  Wavelength   fosc         T2         TX        TY        TZ
        (cm-1)    (nm)                  (au**2)     (au)      (au)      (au)
-----------------------------------------------------------------------------
   1   34100.9    293.2   0.000000000   0.00000   0.00000  -0.00000  -0.00000
   2   36110.0    276.9   0.000000000   0.00000  -0.00000   0.00000   0.00000
   3   39498.0    253.2   0.000000000   0.00000  -0.00000  -0.00000  -0.00000
   4   44026.4    227.1   0.034305634   0.25652  -0.50605   0.02085   0.00000
   5   46053.6    217.1   0.000000000   0.00000   0.00000  -0.00000  -0.00000
   6   52516.1    190.4   0.027701816   0.17366  -0.04158  -0.41464  -0.00000

Dispersion correction           -0.002808755
FINAL SINGLE POINT ENERGY      -307.121201838398

DIPOLE MOMENT
-------------
                                X             Y             Z
Electronic contribution:     -0.24531       2.06939      -0.00000
Nuclear contribution   :      0.71662      -2.06833       0.00000
                        -----------------------------------------
Total Dipole Moment    :      0.47130       0.00105      -0.00000
                        -----------------------------------------
Magnitude (a.u.)       :      0.47131
Magnitude (Debye)      :      1.19796

                             ****ORCA TERMINATED NORMALLY****
TOTAL RUN TIME: 0 days 0 hours 2 minutes 29 seconds 229 msec
