                         Program Version 4.0.1.2 - RELEASE -
|  1> ! UKS wB97X-D3 def2-SVP RIJCOSX def2/JK SlowConv
|  2>
|  3>
|  4> %scf
|  5> 	MaxIter		500
|  6> 	STABPerform	True
|  7> end
|  8>
|  9> %tddft
| 10> 	NRoots 6
| 11> end
| 12>
| 13> * xyz 0 1
| 14>  C                 -1.18578599   -1.17301779    0.00000000
| 15>  C                 -1.22528521    0.21672485    0.00000000
| 16>  C                 -0.03021307    0.94488843    0.00000000
| 17>  C                  1.19387265    0.26897053    0.00000000
| 18>  C                  1.21998389   -1.12396818    0.00000000
| 19>  C                  0.03366349   -1.85245673    0.00000000
| 20>  H                 -2.12142076   -1.73821028    0.00000000
| 21>  H                 -2.17044776    0.76362561    0.00000000
| 22>  H                  2.12866956    0.83920121    0.00000000
| 23>  H                  2.18175171   -1.64285600    0.00000000
| 24>  H                  0.05704252   -2.94432740    0.00000000
| 25>  O                 -0.11105943    2.29589847    0.00000000
| 26>  H                  1.64049955    3.03213291    0.00000000
| 27> end
| 28>
| 29>                          ****END OF INPUT****

CARTESIAN COORDINATES (ANGSTROEM)
---------------------------------
  C     -1.185786   -1.173018    0.000000
  C     -1.225285    0.216725    0.000000
  C     -0.030213    0.944888    0.000000
  C      1.193873    0.268971    0.000000
  C      1.219984   -1.123968    0.000000
  C      0.033663   -1.852457    0.000000
  H     -2.121421   -1.738210    0.000000
  H     -2.170448    0.763626    0.000000
  H      2.128670    0.839201    0.000000
  H      2.181752   -1.642856    0.000000
  H      0.057043   -2.944327    0.000000
  O     -0.111059    2.295898    0.000000
  H      1.640500    3.032133    0.000000

 Total Charge           Charge          ....    0
 Multiplicity           Mult            ....    1
 Number of Electrons    NEL             ....   50
 Basis Dimension        Dim             ....  128

ORBITAL ENERGIES
----------------
                 SPIN UP ORBITALS
  NO   OCC          E(Eh)            E(eV)
   0   1.0000     -19.310211      -525.4576
   1   1.0000     -10.357857      -281.8516
   2   1.0000     -10.301571      -280.3200
   3   1.0000     -10.301232      -280.3108
   4   1.0000     -10.298416      -280.2342
   5   1.0000     -10.297508      -280.2094
   6   1.0000     -10.289548      -279.9928
   7   1.0000      -1.153273       -31.3822
   8   1.0000      -0.967283       -26.3211
   9   1.0000      -0.863813       -23.5055
  10   1.0000      -0.842928       -22.9372
  11   1.0000      -0.726419       -19.7669
  12   1.0000      -0.698835       -19.0163
  13   1.0000      -0.625273       -17.0145
  14   1.0000      -0.586698       -15.9649
  15   1.0000      -0.571948       -15.5635
  16   1.0000      -0.535785       -14.5795
  17   1.0000      -0.526808       -14.3352
  18   1.0000      -0.523930       -14.2569
  19   1.0000      -0.481786       -13.1101
  20   1.0000      -0.461459       -12.5569
  21   1.0000      -0.445163       -12.1135
  22   1.0000      -0.432852       -11.7785
  23   1.0000      -0.348783        -9.4909
  24   1.0000      -0.314129        -8.5479
  25   0.0000      -0.037081        -1.0090
  26   0.0000       0.062986         1.7139
  27   0.0000       0.081528         2.2185
  28   0.0000       0.147436         4.0119
  29   0.0000       0.186973         5.0878

                 SPIN DOWN ORBITALS
  NO   OCC          E(Eh)            E(eV)
   0   1.0000     -19.296374      -525.0810
   1   1.0000     -10.358105      -281.8584
   2   1.0000     -10.301448      -280.3167
   3   1.0000     -10.301259      -280.3115
   4   1.0000     -10.298101      -280.2256
   5   1.0000     -10.296687      -280.1871
   6   1.0000     -10.289619      -279.9948
   7   1.0000      -1.112294       -30.2671
   8   1.0000      -0.963543       -26.2193
   9   1.0000      -0.862550       -23.4712
  10   1.0000      -0.837194       -22.7812
  11   1.0000      -0.721329       -19.6284
  12   1.0000      -0.695067       -18.9137
  13   1.0000      -0.621282       -16.9059
  14   1.0000      -0.572370       -15.5750
  15   1.0000      -0.566386       -15.4121
  16   1.0000      -0.530763       -14.4428
  17   1.0000      -0.526352       -14.3228
  18   1.0000      -0.515934       -14.0393
  19   1.0000      -0.463218       -12.6048
  20   1.0000      -0.449760       -12.2386
  21   1.0000      -0.437395       -11.9021
  22   1.0000      -0.418983       -11.4011
  23   1.0000      -0.348653        -9.4873
  24   1.0000      -0.307894        -8.3782
  25   0.0000      -0.066787        -1.8174
  26   0.0000       0.063495         1.7278
  27   0.0000       0.082481         2.2444
  28   0.0000       0.147914         4.0250
  29   0.0000       0.186876         5.0852

MULLIKEN ATOMIC CHARGES AND SPIN POPULATIONS
--------------------------------------------
   0 C :   -0.008355    0.005719
   1 C :   -0.067780    0.032870
   2 C :    0.217777   -0.032696
   3 C :   -0.087080    0.010486
   4 C :   -0.013319    0.001226
   5 C :   -0.034034   -0.007801
   6 H :    0.028036    0.002426
   7 H :    0.024611   -0.000560
   8 H :   -0.003113    0.003439
   9 H :    0.025138    0.001656
  10 H :    0.020869    0.000159
  11 O :   -0.229414    0.706629
  12 H :    0.126662   -0.723554
Sum of atomic charges         :   -0.0000000

LOEWDIN ATOMIC CHARGES AND SPIN POPULATIONS
-------------------------------------------
   0 C :   -0.013162    0.004446
   1 C :   -0.064483    0.026473
   2 C :    0.028505    0.000266
   3 C :   -0.080447    0.007925
   4 C :   -0.015322   -0.000722
   5 C :   -0.062600   -0.006167
   6 H :    0.036832    0.001814
   7 H :    0.038214   -0.000471
   8 H :    0.026608   -0.004137
   9 H :    0.035964    0.001306
  10 H :    0.031744   -0.000170
  11 O :   -0.087219    0.662413
  12 H :    0.125366   -0.692976

  Mayer bond orders larger than 0.1
B(  0-C ,  1-C ) :   1.4069 B(  0-C ,  5-C ) :   1.3890 B(  0-C ,  6-H ) :   0.9859
B(  1-C ,  2-C ) :   1.3411 B(  1-C ,  7-H ) :   0.9922 B(  2-C ,  3-C ) :   1.3320
B(  2-C , 11-O ) :   1.1557 B(  3-C ,  4-C ) :   1.3981 B(  3-C ,  8-H ) :   0.9870
B(  4-C ,  5-C ) :   1.4033 B(  4-C ,  9-H ) :   0.9844 B(  5-C , 10-H ) :   0.9916
B( 11-O , 12-H ) :   0.4057

-----------------------------------------------------------------------------
         ABSORPTION SPECTRUM VIA TRANSITION ELECTRIC DIPOLE MOMENTS
-----------------------------------------------------------------------------
State   Energy  Wavelength   fosc         T2         TX        TY        TZ
        (cm-1)    (nm)                  (au**2)     (au)      (au)      (au)
-----------------------------------------------------------------------------
   1    2368.0   4223.0   0.000000000   0.00000   0.00000   0.00001  -0.00020
   2   24780.9    403.5   0.000000946   0.00001   0.00000   0.00000   0.00355
   3   25804.5    387.5   0.000049904   0.00064   0.00001   0.00001  -0.02523
   4   29024.3    344.5   0.069672642   0.79027   0.64662   0.61005  -0.00000
   5   33348.3    299.9   0.000007680   0.00008   0.00002   0.00002  -0.00871
   6   33989.1    294.2   0.000223774   0.00217   0.01169   0.04506  -0.00000

Dispersion correction           -0.003029712
FINAL SINGLE POINT ENERGY      -306.996880828945

DIPOLE MOMENT
-------------
                                X             Y             Z
Electronic contribution:     -1.21108       1.50242      -0.00000
Nuclear contribution   :      1.60669      -1.69421       0.00000
                        -----------------------------------------
Total Dipole Moment    :      0.39560      -0.19180      -0.00000
                        -----------------------------------------
Magnitude (a.u.)       :      0.43965
Magnitude (Debye)      :      1.11749

                             ****ORCA TERMINATED NORMALLY****
TOTAL RUN TIME: 0 days 0 hours 4 minutes 16 seconds 434 msec
