                         Program Version 4.0.1.2 - RELEASE -
|  1> ! UKS wB97X-D3 def2-SVP RIJCOSX def2/JK SlowConv
|  2>
|  3>
|  4> %scf
|  5> 	MaxIter		500
|  6> 	STABPerform	True
|  7> end
|  8>
|  9> %tddft
| 10> 	NRoots 6
| 11> end
| 12>
| 13> * xyz 0 1
| 14>  C                 -1.18578599   -1.17301779    0.00000000
| 15>  C                 -1.22528521    0.21672485    0.00000000
| 16>  C                 -0.03021307    0.94488843    0.00000000
| 17>  C                  1.19387265    0.26897053    0.00000000
| 18>  C                  1.21998389   -1.12396818    0.00000000
| 19>  C                  0.03366349   -1.85245673    0.00000000
| 20>  H                 -2.12142076   -1.73821028    0.00000000
| 21>  H                 -2.17044776    0.76362561    0.00000000
| 22>  H                  2.12866956    0.83920121    0.00000000
| 23>  H                  2.18175171   -1.64285600    0.00000000
| 24>  H                  0.05704252   -2.94432740    0.00000000
| 25>  O                 -0.11105943    2.29589847    0.00000000
| 26>  H                  0.53425177    2.56714274    0.00000000
| 27> end
| 28>
| 29>                          ****END OF INPUT****

CARTESIAN COORDINATES (ANGSTROEM)
---------------------------------
  C     -1.185786   -1.173018    0.000000
  C     -1.225285    0.216725    0.000000
  C     -0.030213    0.944888    0.000000
  C      1.193873    0.268971    0.000000
  C      1.219984   -1.123968    0.000000
  C      0.033663   -1.852457    0.000000
  H     -2.121421   -1.738210    0.000000
  H     -2.170448    0.763626    0.000000
  H      2.128670    0.839201    0.000000
  H      2.181752   -1.642856    0.000000
  H      0.057043   -2.944327    0.000000
  O     -0.111059    2.295898    0.000000
  H      0.534252    2.567143    0.000000

 Total Charge           Charge          ....    0
 Multiplicity           Mult            ....    1
 Number of Electrons    NEL             ....   50
 Basis Dimension        Dim             ....  128

ORBITAL ENERGIES
----------------
                 SPIN UP ORBITALS
  NO   OCC          E(Eh)            E(eV)
   0   1.0000     -19.248932      -523.7901
   1   1.0000     -10.356193      -281.8063
   2   1.0000     -10.299000      -280.2500
   3   1.0000     -10.296871      -280.1921
   4   1.0000     -10.295269      -280.1485
   5   1.0000     -10.288528      -279.9651
   6   1.0000     -10.288319      -279.9594
   7   1.0000      -1.242169       -33.8011
   8   1.0000      -0.970559       -26.4103
   9   1.0000      -0.865837       -23.5606
  10   1.0000      -0.858093       -23.3499
  11   1.0000      -0.755245       -20.5513
  12   1.0000      -0.714643       -19.4464
  13   1.0000      -0.664616       -18.0851
  14   1.0000      -0.604169       -16.4403
  15   1.0000      -0.572897       -15.5893
  16   1.0000      -0.539928       -14.6922
  17   1.0000      -0.526089       -14.3156
  18   1.0000      -0.522862       -14.2278
  19   1.0000      -0.498060       -13.5529
  20   1.0000      -0.459057       -12.4916
  21   1.0000      -0.446284       -12.1440
  22   1.0000      -0.435680       -11.8554
  23   1.0000      -0.345303        -9.3962
  24   1.0000      -0.314377        -8.5546
  25   0.0000       0.066266         1.8032
  26   0.0000       0.082120         2.2346
  27   0.0000       0.148157         4.0315
  28   0.0000       0.177766         4.8373
  29   0.0000       0.197101         5.3634

                 SPIN DOWN ORBITALS
  NO   OCC          E(Eh)            E(eV)
   0   1.0000     -19.248932      -523.7901
   1   1.0000     -10.356193      -281.8063
   2   1.0000     -10.299000      -280.2500
   3   1.0000     -10.296871      -280.1921
   4   1.0000     -10.295269      -280.1485
   5   1.0000     -10.288528      -279.9651
   6   1.0000     -10.288319      -279.9594
   7   1.0000      -1.242169       -33.8011
   8   1.0000      -0.970559       -26.4103
   9   1.0000      -0.865837       -23.5606
  10   1.0000      -0.858093       -23.3499
  11   1.0000      -0.755245       -20.5513
  12   1.0000      -0.714643       -19.4464
  13   1.0000      -0.664616       -18.0851
  14   1.0000      -0.604169       -16.4403
  15   1.0000      -0.572897       -15.5893
  16   1.0000      -0.539928       -14.6922
  17   1.0000      -0.526089       -14.3156
  18   1.0000      -0.522862       -14.2278
  19   1.0000      -0.498060       -13.5529
  20   1.0000      -0.459057       -12.4916
  21   1.0000      -0.446284       -12.1440
  22   1.0000      -0.435680       -11.8554
  23   1.0000      -0.345303        -9.3962
  24   1.0000      -0.314377        -8.5546
  25   0.0000       0.066266         1.8032
  26   0.0000       0.082120         2.2346
  27   0.0000       0.148157         4.0315
  28   0.0000       0.177766         4.8373
  29   0.0000       0.197101         5.3634

MULLIKEN ATOMIC CHARGES AND SPIN POPULATIONS
--------------------------------------------
   0 C :   -0.012069    0.000000
   1 C :   -0.055647    0.000000
   2 C :    0.099306    0.000000
   3 C :   -0.076463    0.000000
   4 C :   -0.015657    0.000000
   5 C :   -0.030035    0.000000
   6 H :    0.024340    0.000000
   7 H :    0.021385    0.000000
   8 H :    0.007864    0.000000
   9 H :    0.023033    0.000000
  10 H :    0.020049    0.000000
  11 O :    0.006489    0.000000
  12 H :   -0.012593    0.000000
Sum of atomic charges         :    0.0000000

LOEWDIN ATOMIC CHARGES AND SPIN POPULATIONS
-------------------------------------------
   0 C :   -0.016882    0.000000
   1 C :   -0.058100    0.000000
   2 C :    0.070309    0.000000
   3 C :   -0.084334    0.000000
   4 C :   -0.017821    0.000000
   5 C :   -0.058135    0.000000
   6 H :    0.034512    0.000000
   7 H :    0.038282    0.000000
   8 H :    0.031205    0.000000
   9 H :    0.034403    0.000000
  10 H :    0.031364    0.000000
  11 O :    0.134718    0.000000
  12 H :   -0.139521    0.000000

  Mayer bond orders larger than 0.1
B(  0-C ,  1-C ) :   1.4054 B(  0-C ,  5-C ) :   1.3849 B(  0-C ,  6-H ) :   0.9873
B(  1-C ,  2-C ) :   1.3679 B(  1-C ,  7-H ) :   0.9943 B(  2-C ,  3-C ) :   1.3463
B(  2-C , 11-O ) :   1.1784 B(  3-C ,  4-C ) :   1.3941 B(  3-C ,  8-H ) :   0.9870
B(  4-C ,  5-C ) :   1.4101 B(  4-C ,  9-H ) :   0.9855 B(  5-C , 10-H ) :   0.9918
B( 11-O , 12-H ) :   1.0900

-----------------------------------------------------------------------------
         ABSORPTION SPECTRUM VIA TRANSITION ELECTRIC DIPOLE MOMENTS
-----------------------------------------------------------------------------
State   Energy  Wavelength   fosc         T2         TX        TY        TZ
        (cm-1)    (nm)                  (au**2)     (au)      (au)      (au)
-----------------------------------------------------------------------------
   1   34137.3    292.9   0.000000000   0.00000  -0.00000  -0.00000  -0.00000
   2   36330.2    275.3   0.000000000   0.00000   0.00000  -0.00000  -0.00000
   3   39545.7    252.9   0.000000000   0.00000  -0.00000   0.00000   0.00000
   4   44152.6    226.5   0.032193149   0.24004   0.48963  -0.01748  -0.00000
   5   45931.4    217.7   0.000000000   0.00000  -0.00000   0.00000  -0.00000
   6   52625.7    190.0   0.024014932   0.15023  -0.03944  -0.38558  -0.00000

Dispersion correction           -0.002816111
FINAL SINGLE POINT ENERGY      -307.026359923915

DIPOLE MOMENT
-------------
                                X             Y             Z
Electronic contribution:     -0.19912       2.05529      -0.00000
Nuclear contribution   :      0.63570      -2.10235       0.00000
                        -----------------------------------------
Total Dipole Moment    :      0.43659      -0.04706      -0.00000
                        -----------------------------------------
Magnitude (a.u.)       :      0.43911
Magnitude (Debye)      :      1.11614

                             ****ORCA TERMINATED NORMALLY****
TOTAL RUN TIME: 0 days 0 hours 2 minutes 34 seconds 229 msec
