                         Program Version 4.0.1.2 - RELEASE -
|  1> ! UKS wB97X-D3 def2-SVP RIJCOSX def2/JK SlowConv
|  2>
|  3>
|  4> %scf
|  5> 	MaxIter		500
|  6> 	STABPerform	True
|  7> end
|  8>
|  9> %tddft
| 10> 	NRoots 6
| 11> end
| 12>
| 13> * xyz 0 1
| 14>  C                 -1.18578599   -1.17301779    0.00000000
| 15>  C                 -1.22528521    0.21672485    0.00000000
| 16>  C                 -0.03021307    0.94488843    0.00000000
| 17>  C                  1.19387265    0.26897053    0.00000000
| 18>  C                  1.21998389   -1.12396818    0.00000000
| 19>  C                  0.03366349   -1.85245673    0.00000000
| 20>  H                 -2.12142076   -1.73821028    0.00000000
| 21>  H                 -2.17044776    0.76362561    0.00000000
| 22>  H                  2.12866956    0.83920121    0.00000000
| 23>  H                  2.18175171   -1.64285600    0.00000000
| 24>  H                  0.05704252   -2.94432740    0.00000000
| 25>  O                 -0.11105943    2.29589847    0.00000000
| 26>  H                  2.47018538    3.38087553    0.00000000
| 27> end
| 28>
| 29>                          ****END OF INPUT****

CARTESIAN COORDINATES (ANGSTROEM)
---------------------------------
  C     -1.185786   -1.173018    0.000000
  C     -1.225285    0.216725    0.000000
  C     -0.030213    0.944888    0.000000
  C      1.193873    0.268971    0.000000
  C      1.219984   -1.123968    0.000000
  C      0.033663   -1.852457    0.000000
  H     -2.121421   -1.738210    0.000000
  H     -2.170448    0.763626    0.000000
  H      2.128670    0.839201    0.000000
  H      2.181752   -1.642856    0.000000
  H      0.057043   -2.944327    0.000000
  O     -0.111059    2.295898    0.000000
  H      2.470185    3.380876    0.000000

 Total Charge           Charge          ....    0
 Multiplicity           Mult            ....    1
 Number of Electrons    NEL             ....   50
 Basis Dimension        Dim             ....  128

ORBITAL ENERGIES
----------------
                 SPIN UP ORBITALS
  NO   OCC          E(Eh)            E(eV)
   0   1.0000     -19.306777      -525.3641
   1   1.0000     -10.365814      -282.0681
   2   1.0000     -10.307109      -280.4707
   3   1.0000     -10.306790      -280.4620
   4   1.0000     -10.304848      -280.4092
   5   1.0000     -10.304459      -280.3986
   6   1.0000     -10.295200      -280.1466
   7   1.0000      -1.117280       -30.4027
   8   1.0000      -0.969058       -26.3694
   9   1.0000      -0.867957       -23.6183
  10   1.0000      -0.842337       -22.9212
  11   1.0000      -0.725594       -19.7444
  12   1.0000      -0.699589       -19.0368
  13   1.0000      -0.626103       -17.0371
  14   1.0000      -0.572992       -15.5919
  15   1.0000      -0.569569       -15.4988
  16   1.0000      -0.535701       -14.5772
  17   1.0000      -0.530810       -14.4441
  18   1.0000      -0.524310       -14.2672
  19   1.0000      -0.464727       -12.6459
  20   1.0000      -0.453545       -12.3416
  21   1.0000      -0.444563       -12.0972
  22   1.0000      -0.414872       -11.2892
  23   1.0000      -0.354052        -9.6342
  24   1.0000      -0.315127        -8.5751
  25   0.0000      -0.078710        -2.1418
  26   0.0000       0.058233         1.5846
  27   0.0000       0.075983         2.0676
  28   0.0000       0.145432         3.9574
  29   0.0000       0.184449         5.0191

                 SPIN DOWN ORBITALS
  NO   OCC          E(Eh)            E(eV)
   0   1.0000     -19.325695      -525.8789
   1   1.0000     -10.365530      -282.0604
   2   1.0000     -10.307255      -280.4747
   3   1.0000     -10.306870      -280.4642
   4   1.0000     -10.305638      -280.4307
   5   1.0000     -10.305506      -280.4271
   6   1.0000     -10.295119      -280.1444
   7   1.0000      -1.173576       -31.9346
   8   1.0000      -0.974462       -26.5164
   9   1.0000      -0.870105       -23.6768
  10   1.0000      -0.850740       -23.1498
  11   1.0000      -0.733638       -19.9633
  12   1.0000      -0.705767       -19.2049
  13   1.0000      -0.632598       -17.2139
  14   1.0000      -0.596933       -16.2434
  15   1.0000      -0.580492       -15.7960
  16   1.0000      -0.543116       -14.7789
  17   1.0000      -0.536014       -14.5857
  18   1.0000      -0.532110       -14.4795
  19   1.0000      -0.499265       -13.5857
  20   1.0000      -0.467325       -12.7166
  21   1.0000      -0.454519       -12.3681
  22   1.0000      -0.440951       -11.9989
  23   1.0000      -0.354437        -9.6447
  24   1.0000      -0.323156        -8.7935
  25   0.0000       0.057399         1.5619
  26   0.0000       0.074711         2.0330
  27   0.0000       0.122109         3.3228
  28   0.0000       0.150375         4.0919
  29   0.0000       0.187796         5.1102

MULLIKEN ATOMIC CHARGES AND SPIN POPULATIONS
--------------------------------------------
   0 C :   -0.007716   -0.006056
   1 C :   -0.069730   -0.043323
   2 C :    0.188319    0.047708
   3 C :   -0.077352   -0.034058
   4 C :   -0.009601   -0.003971
   5 C :   -0.031867    0.009348
   6 H :    0.030975   -0.003145
   7 H :    0.027581    0.000429
   8 H :    0.021877    0.001355
   9 H :    0.029786   -0.002471
  10 H :    0.023819   -0.000275
  11 O :   -0.135849   -0.950252
  12 H :    0.009758    0.984711
Sum of atomic charges         :   -0.0000000

LOEWDIN ATOMIC CHARGES AND SPIN POPULATIONS
-------------------------------------------
   0 C :   -0.012008   -0.004560
   1 C :   -0.063445   -0.034926
   2 C :    0.022348   -0.001718
   3 C :   -0.068973   -0.025308
   4 C :   -0.012303   -0.002157
   5 C :   -0.058409    0.007322
   6 H :    0.038183   -0.002319
   7 H :    0.038867    0.000536
   8 H :    0.035420    0.004318
   9 H :    0.038160   -0.001934
  10 H :    0.033001    0.000128
  11 O :   -0.001470   -0.918656
  12 H :    0.010629    0.979274

  Mayer bond orders larger than 0.1
B(  0-C ,  1-C ) :   1.4053 B(  0-C ,  5-C ) :   1.3913 B(  0-C ,  6-H ) :   0.9854
B(  1-C ,  2-C ) :   1.3336 B(  1-C ,  7-H ) :   0.9922 B(  2-C ,  3-C ) :   1.3360
B(  2-C , 11-O ) :   1.1676 B(  3-C ,  4-C ) :   1.3956 B(  3-C ,  8-H ) :   0.9936
B(  4-C ,  5-C ) :   1.4023 B(  4-C ,  9-H ) :   0.9858 B(  5-C , 10-H ) :   0.9917

-----------------------------------------------------------------------------
         ABSORPTION SPECTRUM VIA TRANSITION ELECTRIC DIPOLE MOMENTS
-----------------------------------------------------------------------------
State   Energy  Wavelength   fosc         T2         TX        TY        TZ
        (cm-1)    (nm)                  (au**2)     (au)      (au)      (au)
-----------------------------------------------------------------------------
   1   -2075.0   -4819.2   -0.000000000   0.00000  -0.00000   0.00006  -0.00016
   2   22481.4    444.8   0.000032252   0.00047  -0.00003   0.00001  -0.02173
   3   29446.0    339.6   0.000001343   0.00002  -0.00002   0.00006   0.00387
   4   32683.9    306.0   0.013296550   0.13393   0.32182   0.17424   0.00001
   5   34041.9    293.8   0.000193680   0.00187   0.00036  -0.04328   0.00000
   6   35694.0    280.2   0.000355111   0.00328   0.05705   0.00452  -0.00000

Dispersion correction           -0.003201038
FINAL SINGLE POINT ENERGY      -306.979232326045

DIPOLE MOMENT
-------------
                                X             Y             Z
Electronic contribution:     -2.26753       0.88856      -0.00000
Nuclear contribution   :      2.33492      -1.38811       0.00000
                        -----------------------------------------
Total Dipole Moment    :      0.06739      -0.49955      -0.00000
                        -----------------------------------------
Magnitude (a.u.)       :      0.50407
Magnitude (Debye)      :      1.28125

                             ****ORCA TERMINATED NORMALLY****
TOTAL RUN TIME: 0 days 0 hours 4 minutes 9 seconds 793 msec
