                         Program Version 4.0.1.2 - RELEASE -
|  1> ! UKS wB97X-D3 def2-SVP RIJCOSX def2/JK SlowConv
|  2>
|  3>
|  4> %scf
|  5> 	MaxIter		500
|  6> 	STABPerform	True
|  7> end
|  8>
|  9> %tddft
| 10> 	NRoots 6
| 11> end
| 12>
| 13> * xyz 0 1
| 14>  C                 -1.18578599   -1.17301779    0.00000000
| 15>  C                 -1.22528521    0.21672485    0.00000000
| 16>  C                 -0.03021307    0.94488843    0.00000000
| 17>  C                  1.19387265    0.26897053    0.00000000
| 18>  C                  1.21998389   -1.12396818    0.00000000
| 19>  C                  0.03366349   -1.85245673    0.00000000
| 20>  H                 -2.12142076   -1.73821028    0.00000000
| 21>  H                 -2.17044776    0.76362561    0.00000000
| 22>  H                  2.12866956    0.83920121    0.00000000
| 23>  H                  2.18175171   -1.64285600    0.00000000
| 24>  H                  0.05704252   -2.94432740    0.00000000
| 25>  O                 -0.11105943    2.29589847    0.00000000
| 26>  H                  1.36393760    2.91588537    0.00000000
| 27> end
| 28>
| 29>                          ****END OF INPUT****

CARTESIAN COORDINATES (ANGSTROEM)
---------------------------------
  C     -1.185786   -1.173018    0.000000
  C     -1.225285    0.216725    0.000000
  C     -0.030213    0.944888    0.000000
  C      1.193873    0.268971    0.000000
  C      1.219984   -1.123968    0.000000
  C      0.033663   -1.852457    0.000000
  H     -2.121421   -1.738210    0.000000
  H     -2.170448    0.763626    0.000000
  H      2.128670    0.839201    0.000000
  H      2.181752   -1.642856    0.000000
  H      0.057043   -2.944327    0.000000
  O     -0.111059    2.295898    0.000000
  H      1.363938    2.915885    0.000000

 Total Charge           Charge          ....    0
 Multiplicity           Mult            ....    1
 Number of Electrons    NEL             ....   50
 Basis Dimension        Dim             ....  128

ORBITAL ENERGIES
----------------
                 SPIN UP ORBITALS
  NO   OCC          E(Eh)            E(eV)
   0   1.0000     -19.293187      -524.9943
   1   1.0000     -10.351734      -281.6850
   2   1.0000     -10.296615      -280.1851
   3   1.0000     -10.296175      -280.1732
   4   1.0000     -10.292065      -280.0613
   5   1.0000     -10.289045      -279.9791
   6   1.0000     -10.284633      -279.8591
   7   1.0000      -1.124490       -30.5989
   8   1.0000      -0.959934       -26.1211
   9   1.0000      -0.857880       -23.3441
  10   1.0000      -0.834861       -22.7177
  11   1.0000      -0.719116       -19.5681
  12   1.0000      -0.692680       -18.8488
  13   1.0000      -0.619467       -16.8566
  14   1.0000      -0.578511       -15.7421
  15   1.0000      -0.564144       -15.3512
  16   1.0000      -0.529241       -14.4014
  17   1.0000      -0.521705       -14.1963
  18   1.0000      -0.511841       -13.9279
  19   1.0000      -0.463806       -12.6208
  20   1.0000      -0.453395       -12.3375
  21   1.0000      -0.434642       -11.8272
  22   1.0000      -0.422603       -11.4996
  23   1.0000      -0.343676        -9.3519
  24   1.0000      -0.304389        -8.2828
  25   0.0000      -0.040275        -1.0959
  26   0.0000       0.068168         1.8549
  27   0.0000       0.087632         2.3846
  28   0.0000       0.149961         4.0806
  29   0.0000       0.188895         5.1401

                 SPIN DOWN ORBITALS
  NO   OCC          E(Eh)            E(eV)
   0   1.0000     -19.293187      -524.9943
   1   1.0000     -10.351734      -281.6850
   2   1.0000     -10.296615      -280.1851
   3   1.0000     -10.296175      -280.1732
   4   1.0000     -10.292065      -280.0613
   5   1.0000     -10.289045      -279.9791
   6   1.0000     -10.284633      -279.8591
   7   1.0000      -1.124490       -30.5989
   8   1.0000      -0.959934       -26.1211
   9   1.0000      -0.857880       -23.3441
  10   1.0000      -0.834861       -22.7177
  11   1.0000      -0.719116       -19.5681
  12   1.0000      -0.692680       -18.8488
  13   1.0000      -0.619467       -16.8566
  14   1.0000      -0.578511       -15.7421
  15   1.0000      -0.564144       -15.3512
  16   1.0000      -0.529241       -14.4014
  17   1.0000      -0.521705       -14.1963
  18   1.0000      -0.511841       -13.9279
  19   1.0000      -0.463806       -12.6208
  20   1.0000      -0.453395       -12.3375
  21   1.0000      -0.434642       -11.8272
  22   1.0000      -0.422603       -11.4996
  23   1.0000      -0.343676        -9.3519
  24   1.0000      -0.304389        -8.2828
  25   0.0000      -0.040275        -1.0959
  26   0.0000       0.068168         1.8549
  27   0.0000       0.087632         2.3846
  28   0.0000       0.149961         4.0806
  29   0.0000       0.188895         5.1401

MULLIKEN ATOMIC CHARGES AND SPIN POPULATIONS
--------------------------------------------
   0 C :   -0.008773    0.000000
   1 C :   -0.066524    0.000000
   2 C :    0.236668    0.000000
   3 C :   -0.102489    0.000000
   4 C :   -0.014578    0.000000
   5 C :   -0.036037    0.000000
   6 H :    0.025031    0.000000
   7 H :    0.021387    0.000000
   8 H :   -0.015116    0.000000
   9 H :    0.021036    0.000000
  10 H :    0.018200    0.000000
  11 O :   -0.333320    0.000000
  12 H :    0.254514    0.000000
Sum of atomic charges         :    0.0000000

LOEWDIN ATOMIC CHARGES AND SPIN POPULATIONS
-------------------------------------------
   0 C :   -0.014476    0.000000
   1 C :   -0.065606    0.000000
   2 C :    0.034937    0.000000
   3 C :   -0.092361    0.000000
   4 C :   -0.017631    0.000000
   5 C :   -0.066020    0.000000
   6 H :    0.035330    0.000000
   7 H :    0.037518    0.000000
   8 H :    0.022144    0.000000
   9 H :    0.033871    0.000000
  10 H :    0.030618    0.000000
  11 O :   -0.173701    0.000000
  12 H :    0.235376    0.000000

  Mayer bond orders larger than 0.1
B(  0-C ,  1-C ) :   1.4086 B(  0-C ,  5-C ) :   1.3857 B(  0-C ,  6-H ) :   0.9865
B(  1-C ,  2-C ) :   1.3501 B(  1-C ,  7-H ) :   0.9920 B(  2-C ,  3-C ) :   1.3334
B(  2-C , 11-O ) :   1.1380 B(  3-C ,  4-C ) :   1.3973 B(  3-C ,  8-H ) :   0.9823
B(  4-C ,  5-C ) :   1.4063 B(  4-C ,  9-H ) :   0.9836 B(  5-C , 10-H ) :   0.9915
B( 11-O , 12-H ) :   0.8564

-----------------------------------------------------------------------------
         ABSORPTION SPECTRUM VIA TRANSITION ELECTRIC DIPOLE MOMENTS
-----------------------------------------------------------------------------
State   Energy  Wavelength   fosc         T2         TX        TY        TZ
        (cm-1)    (nm)                  (au**2)     (au)      (au)      (au)
-----------------------------------------------------------------------------
   1   12938.5    772.9   0.000000000   0.00000   0.00000   0.00000   0.00000
   2   16640.6    600.9   0.000000025   0.00000  -0.00000  -0.00000   0.00070
   3   22196.1    450.5   0.000000000   0.00000  -0.00000   0.00000   0.00000
   4   33717.4    296.6   0.000000000   0.00000   0.00000   0.00000   0.00000
   5   33950.7    294.5   0.000000000   0.00000   0.00000   0.00000  -0.00000
   6   33950.7    294.5   0.000155884   0.00151  -0.00001  -0.00001   0.03888

Dispersion correction           -0.002988043
FINAL SINGLE POINT ENERGY      -307.037693821699

DIPOLE MOMENT
-------------
                                X             Y             Z
Electronic contribution:     -0.70974       1.88203      -0.00000
Nuclear contribution   :      1.36394      -1.79624       0.00000
                        -----------------------------------------
Total Dipole Moment    :      0.65420       0.08579      -0.00000
                        -----------------------------------------
Magnitude (a.u.)       :      0.65980
Magnitude (Debye)      :      1.67708

                             ****ORCA TERMINATED NORMALLY****
TOTAL RUN TIME: 0 days 0 hours 3 minutes 48 seconds 187 msec
