                         Program Version 4.0.1.2 - RELEASE -
|  1> ! UKS wB97X-D3 def2-SVP RIJCOSX def2/JK SlowConv
|  2>
|  3>
|  4> %scf
|  5> 	MaxIter		500
|  6> 	STABPerform	True
|  7> end
|  8>
|  9> %tddft
| 10> 	NRoots 6
| 11> end
| 12>
| 13> * xyz 0 1
| 14>  C                 -1.18578599   -1.17301779    0.00000000
| 15>  C                 -1.22528521    0.21672485    0.00000000
| 16>  C                 -0.03021307    0.94488843    0.00000000
| 17>  C                  1.19387265    0.26897053    0.00000000
| 18>  C                  1.21998389   -1.12396818    0.00000000
| 19>  C                  0.03366349   -1.85245673    0.00000000
| 20>  H                 -2.12142076   -1.73821028    0.00000000
| 21>  H                 -2.17044776    0.76362561    0.00000000
| 22>  H                  2.12866956    0.83920121    0.00000000
| 23>  H                  2.18175171   -1.64285600    0.00000000
| 24>  H                  0.05704252   -2.94432740    0.00000000
| 25>  O                 -0.11105943    2.29589847    0.00000000
| 26>  H                  0.99518834    2.76088865    0.00000000
| 27> end
| 28>
| 29>                          ****END OF INPUT****

CARTESIAN COORDINATES (ANGSTROEM)
---------------------------------
  C     -1.185786   -1.173018    0.000000
  C     -1.225285    0.216725    0.000000
  C     -0.030213    0.944888    0.000000
  C      1.193873    0.268971    0.000000
  C      1.219984   -1.123968    0.000000
  C      0.033663   -1.852457    0.000000
  H     -2.121421   -1.738210    0.000000
  H     -2.170448    0.763626    0.000000
  H      2.128670    0.839201    0.000000
  H      2.181752   -1.642856    0.000000
  H      0.057043   -2.944327    0.000000
  O     -0.111059    2.295898    0.000000
  H      0.995188    2.760889    0.000000

 Total Charge           Charge          ....    0
 Multiplicity           Mult            ....    1
 Number of Electrons    NEL             ....   50
 Basis Dimension        Dim             ....  128

ORBITAL ENERGIES
----------------
                 SPIN UP ORBITALS
  NO   OCC          E(Eh)            E(eV)
   0   1.0000     -19.282912      -524.7147
   1   1.0000     -10.351943      -281.6907
   2   1.0000     -10.296190      -280.1736
   3   1.0000     -10.294817      -280.1362
   4   1.0000     -10.291284      -280.0401
   5   1.0000     -10.286201      -279.9018
   6   1.0000     -10.284472      -279.8547
   7   1.0000      -1.140939       -31.0465
   8   1.0000      -0.960547       -26.1378
   9   1.0000      -0.857254       -23.3271
  10   1.0000      -0.838177       -22.8080
  11   1.0000      -0.722482       -19.6597
  12   1.0000      -0.698082       -18.9958
  13   1.0000      -0.632832       -17.2202
  14   1.0000      -0.594271       -16.1709
  15   1.0000      -0.565987       -15.4013
  16   1.0000      -0.533608       -14.5202
  17   1.0000      -0.520714       -14.1693
  18   1.0000      -0.514401       -13.9976
  19   1.0000      -0.478434       -13.0189
  20   1.0000      -0.454493       -12.3674
  21   1.0000      -0.436861       -11.8876
  22   1.0000      -0.429457       -11.6861
  23   1.0000      -0.342810        -9.3283
  24   1.0000      -0.305989        -8.3264
  25   0.0000       0.068806         1.8723
  26   0.0000       0.073560         2.0017
  27   0.0000       0.087187         2.3725
  28   0.0000       0.150873         4.1055
  29   0.0000       0.190656         5.1880

                 SPIN DOWN ORBITALS
  NO   OCC          E(Eh)            E(eV)
   0   1.0000     -19.282912      -524.7147
   1   1.0000     -10.351943      -281.6907
   2   1.0000     -10.296190      -280.1736
   3   1.0000     -10.294817      -280.1362
   4   1.0000     -10.291284      -280.0401
   5   1.0000     -10.286201      -279.9018
   6   1.0000     -10.284472      -279.8547
   7   1.0000      -1.140939       -31.0465
   8   1.0000      -0.960547       -26.1378
   9   1.0000      -0.857254       -23.3271
  10   1.0000      -0.838177       -22.8080
  11   1.0000      -0.722482       -19.6597
  12   1.0000      -0.698082       -18.9958
  13   1.0000      -0.632832       -17.2202
  14   1.0000      -0.594271       -16.1709
  15   1.0000      -0.565987       -15.4013
  16   1.0000      -0.533608       -14.5202
  17   1.0000      -0.520714       -14.1693
  18   1.0000      -0.514401       -13.9976
  19   1.0000      -0.478434       -13.0189
  20   1.0000      -0.454493       -12.3674
  21   1.0000      -0.436861       -11.8876
  22   1.0000      -0.429457       -11.6861
  23   1.0000      -0.342810        -9.3283
  24   1.0000      -0.305989        -8.3264
  25   0.0000       0.068806         1.8723
  26   0.0000       0.073560         2.0017
  27   0.0000       0.087187         2.3725
  28   0.0000       0.150873         4.1055
  29   0.0000       0.190656         5.1880

MULLIKEN ATOMIC CHARGES AND SPIN POPULATIONS
--------------------------------------------
   0 C :   -0.010220    0.000000
   1 C :   -0.063436    0.000000
   2 C :    0.202097    0.000000
   3 C :   -0.102149    0.000000
   4 C :   -0.014898    0.000000
   5 C :   -0.034534    0.000000
   6 H :    0.023618    0.000000
   7 H :    0.019851    0.000000
   8 H :   -0.006935    0.000000
   9 H :    0.020603    0.000000
  10 H :    0.018038    0.000000
  11 O :   -0.320693    0.000000
  12 H :    0.268657    0.000000
Sum of atomic charges         :   -0.0000000

LOEWDIN ATOMIC CHARGES AND SPIN POPULATIONS
-------------------------------------------
   0 C :   -0.015706    0.000000
   1 C :   -0.064823    0.000000
   2 C :    0.041768    0.000000
   3 C :   -0.095509    0.000000
   4 C :   -0.017980    0.000000
   5 C :   -0.064063    0.000000
   6 H :    0.034386    0.000000
   7 H :    0.037301    0.000000
   8 H :    0.024742    0.000000
   9 H :    0.033421    0.000000
  10 H :    0.030497    0.000000
  11 O :   -0.150437    0.000000
  12 H :    0.206403    0.000000

  Mayer bond orders larger than 0.1
B(  0-C ,  1-C ) :   1.4103 B(  0-C ,  5-C ) :   1.3840 B(  0-C ,  6-H ) :   0.9873
B(  1-C ,  2-C ) :   1.3631 B(  1-C ,  7-H ) :   0.9925 B(  2-C ,  3-C ) :   1.3409
B(  2-C , 11-O ) :   1.1522 B(  3-C ,  4-C ) :   1.3962 B(  3-C ,  8-H ) :   0.9837
B(  4-C ,  5-C ) :   1.4093 B(  4-C ,  9-H ) :   0.9842 B(  5-C , 10-H ) :   0.9917
B( 11-O , 12-H ) :   0.8906

-----------------------------------------------------------------------------
         ABSORPTION SPECTRUM VIA TRANSITION ELECTRIC DIPOLE MOMENTS
-----------------------------------------------------------------------------
State   Energy  Wavelength   fosc         T2         TX        TY        TZ
        (cm-1)    (nm)                  (au**2)     (au)      (au)      (au)
-----------------------------------------------------------------------------
   1   33988.0    294.2   0.000000000   0.00000   0.00000  -0.00000  -0.00000
   2   35365.1    282.8   0.000000000   0.00000   0.00000   0.00000  -0.00000
   3   39348.9    254.1   0.000000000   0.00000  -0.00000   0.00000   0.00000
   4   39658.7    252.2   0.000000000   0.00000   0.00000  -0.00000   0.00000
   5   42820.3    233.5   0.000004406   0.00003   0.00000  -0.00000  -0.00582
   6   43571.4    229.5   0.040174077   0.30354   0.54881  -0.04848  -0.00000

Dispersion correction           -0.002792005
FINAL SINGLE POINT ENERGY      -307.126083914509

DIPOLE MOMENT
-------------
                                X             Y             Z
Electronic contribution:     -0.43574       2.05019      -0.00000
Nuclear contribution   :      1.04028      -1.93229       0.00000
                        -----------------------------------------
Total Dipole Moment    :      0.60453       0.11790      -0.00000
                        -----------------------------------------
Magnitude (a.u.)       :      0.61592
Magnitude (Debye)      :      1.56555

                             ****ORCA TERMINATED NORMALLY****
TOTAL RUN TIME: 0 days 0 hours 2 minutes 59 seconds 134 msec
