                         Program Version 4.0.1.2 - RELEASE -
|  1> ! UKS wB97X-D3 def2-SVP RIJCOSX def2/JK SlowConv
|  2>
|  3>
|  4> %scf
|  5> 	MaxIter		500
|  6> 	STABPerform	True
|  7> end
|  8>
|  9> %tddft
| 10> 	NRoots 6
| 11> end
| 12>
| 13> * xyz 0 1
| 14>  C                 -1.18578599   -1.17301779    0.00000000
| 15>  C                 -1.22528521    0.21672485    0.00000000
| 16>  C                 -0.03021307    0.94488843    0.00000000
| 17>  C                  1.19387265    0.26897053    0.00000000
| 18>  C                  1.21998389   -1.12396818    0.00000000
| 19>  C                  0.03366349   -1.85245673    0.00000000
| 20>  H                 -2.12142076   -1.73821028    0.00000000
| 21>  H                 -2.17044776    0.76362561    0.00000000
| 22>  H                  2.12866956    0.83920121    0.00000000
| 23>  H                  2.18175171   -1.64285600    0.00000000
| 24>  H                  0.05704252   -2.94432740    0.00000000
| 25>  O                 -0.11105943    2.29589847    0.00000000
| 26>  H                  0.67253274    2.62526651    0.00000000
| 27> end
| 28>
| 29>                          ****END OF INPUT****

CARTESIAN COORDINATES (ANGSTROEM)
---------------------------------
  C     -1.185786   -1.173018    0.000000
  C     -1.225285    0.216725    0.000000
  C     -0.030213    0.944888    0.000000
  C      1.193873    0.268971    0.000000
  C      1.219984   -1.123968    0.000000
  C      0.033663   -1.852457    0.000000
  H     -2.121421   -1.738210    0.000000
  H     -2.170448    0.763626    0.000000
  H      2.128670    0.839201    0.000000
  H      2.181752   -1.642856    0.000000
  H      0.057043   -2.944327    0.000000
  O     -0.111059    2.295898    0.000000
  H      0.672533    2.625267    0.000000

 Total Charge           Charge          ....    0
 Multiplicity           Mult            ....    1
 Number of Electrons    NEL             ....   50
 Basis Dimension        Dim             ....  128

ORBITAL ENERGIES
----------------
                 SPIN UP ORBITALS
  NO   OCC          E(Eh)            E(eV)
   0   1.0000     -19.263083      -524.1751
   1   1.0000     -10.354352      -281.7562
   2   1.0000     -10.297851      -280.2188
   3   1.0000     -10.295886      -280.1653
   4   1.0000     -10.293473      -280.0996
   5   1.0000     -10.287083      -279.9258
   6   1.0000     -10.286833      -279.9190
   7   1.0000      -1.194834       -32.5131
   8   1.0000      -0.966262       -26.2933
   9   1.0000      -0.859753       -23.3951
  10   1.0000      -0.851639       -23.1743
  11   1.0000      -0.740596       -20.1526
  12   1.0000      -0.710683       -19.3387
  13   1.0000      -0.657370       -17.8880
  14   1.0000      -0.602207       -16.3869
  15   1.0000      -0.570375       -15.5207
  16   1.0000      -0.538039       -14.6408
  17   1.0000      -0.521822       -14.1995
  18   1.0000      -0.521658       -14.1950
  19   1.0000      -0.492040       -13.3891
  20   1.0000      -0.457351       -12.4452
  21   1.0000      -0.442861       -12.0509
  22   1.0000      -0.433609       -11.7991
  23   1.0000      -0.344175        -9.3655
  24   1.0000      -0.311260        -8.4698
  25   0.0000       0.067374         1.8333
  26   0.0000       0.084057         2.2873
  27   0.0000       0.147523         4.0143
  28   0.0000       0.165442         4.5019
  29   0.0000       0.194226         5.2852

                 SPIN DOWN ORBITALS
  NO   OCC          E(Eh)            E(eV)
   0   1.0000     -19.263083      -524.1751
   1   1.0000     -10.354352      -281.7562
   2   1.0000     -10.297851      -280.2188
   3   1.0000     -10.295886      -280.1653
   4   1.0000     -10.293473      -280.0996
   5   1.0000     -10.287083      -279.9258
   6   1.0000     -10.286833      -279.9190
   7   1.0000      -1.194834       -32.5131
   8   1.0000      -0.966262       -26.2933
   9   1.0000      -0.859753       -23.3951
  10   1.0000      -0.851639       -23.1743
  11   1.0000      -0.740596       -20.1526
  12   1.0000      -0.710683       -19.3387
  13   1.0000      -0.657370       -17.8880
  14   1.0000      -0.602207       -16.3869
  15   1.0000      -0.570375       -15.5207
  16   1.0000      -0.538039       -14.6408
  17   1.0000      -0.521822       -14.1995
  18   1.0000      -0.521658       -14.1950
  19   1.0000      -0.492040       -13.3891
  20   1.0000      -0.457351       -12.4452
  21   1.0000      -0.442861       -12.0509
  22   1.0000      -0.433609       -11.7991
  23   1.0000      -0.344175        -9.3655
  24   1.0000      -0.311260        -8.4698
  25   0.0000       0.067374         1.8333
  26   0.0000       0.084057         2.2873
  27   0.0000       0.147523         4.0143
  28   0.0000       0.165442         4.5019
  29   0.0000       0.194226         5.2852

MULLIKEN ATOMIC CHARGES AND SPIN POPULATIONS
--------------------------------------------
   0 C :   -0.011501    0.000000
   1 C :   -0.058308    0.000000
   2 C :    0.130358    0.000000
   3 C :   -0.086180    0.000000
   4 C :   -0.015491    0.000000
   5 C :   -0.031699    0.000000
   6 H :    0.023854    0.000000
   7 H :    0.020451    0.000000
   8 H :    0.003568    0.000000
   9 H :    0.022046    0.000000
  10 H :    0.019244    0.000000
  11 O :   -0.128110    0.000000
  12 H :    0.111768    0.000000
Sum of atomic charges         :    0.0000000

LOEWDIN ATOMIC CHARGES AND SPIN POPULATIONS
-------------------------------------------
   0 C :   -0.016628    0.000000
   1 C :   -0.060761    0.000000
   2 C :    0.058147    0.000000
   3 C :   -0.089202    0.000000
   4 C :   -0.017947    0.000000
   5 C :   -0.060247    0.000000
   6 H :    0.034326    0.000000
   7 H :    0.037811    0.000000
   8 H :    0.029156    0.000000
   9 H :    0.033977    0.000000
  10 H :    0.031006    0.000000
  11 O :    0.013289    0.000000
  12 H :    0.007071    0.000000

  Mayer bond orders larger than 0.1
B(  0-C ,  1-C ) :   1.4074 B(  0-C ,  5-C ) :   1.3844 B(  0-C ,  6-H ) :   0.9874
B(  1-C ,  2-C ) :   1.3669 B(  1-C ,  7-H ) :   0.9939 B(  2-C ,  3-C ) :   1.3447
B(  2-C , 11-O ) :   1.1860 B(  3-C ,  4-C ) :   1.3949 B(  3-C ,  8-H ) :   0.9858
B(  4-C ,  5-C ) :   1.4100 B(  4-C ,  9-H ) :   0.9850 B(  5-C , 10-H ) :   0.9918
B( 11-O , 12-H ) :   1.0180

-----------------------------------------------------------------------------
         ABSORPTION SPECTRUM VIA TRANSITION ELECTRIC DIPOLE MOMENTS
-----------------------------------------------------------------------------
State   Energy  Wavelength   fosc         T2         TX        TY        TZ
        (cm-1)    (nm)                  (au**2)     (au)      (au)      (au)
-----------------------------------------------------------------------------
   1   34083.9    293.4   0.000000000   0.00000  -0.00000   0.00000  -0.00000
   2   36002.2    277.8   0.000000000   0.00000  -0.00000  -0.00000  -0.00000
   3   39474.7    253.3   0.000000000   0.00000  -0.00000  -0.00000   0.00000
   4   43964.1    227.5   0.035321693   0.26450   0.51379  -0.02283  -0.00000
   5   46114.2    216.9   0.000000000   0.00000   0.00000   0.00000  -0.00000
   6   52459.8    190.6   0.029755581   0.18673   0.04312   0.42997   0.00000

Dispersion correction           -0.002803871
FINAL SINGLE POINT ENERGY      -307.143585937926

DIPOLE MOMENT
-------------
                                X             Y             Z
Electronic contribution:     -0.26738       2.07469      -0.00000
Nuclear contribution   :      0.75707      -2.05133       0.00000
                        -----------------------------------------
Total Dipole Moment    :      0.48969       0.02336      -0.00000
                        -----------------------------------------
Magnitude (a.u.)       :      0.49025
Magnitude (Debye)      :      1.24611

                             ****ORCA TERMINATED NORMALLY****
TOTAL RUN TIME: 0 days 0 hours 2 minutes 26 seconds 290 msec
