                         Program Version 4.0.1.2 - RELEASE -
|  1> ! UKS wB97X-D3 def2-SVP RIJCOSX def2/JK SlowConv
|  2>
|  3>
|  4> %scf
|  5> 	MaxIter		500
|  6> 	STABPerform	True
|  7> end
|  8>
|  9> %tddft
| 10> 	NRoots 6
| 11> end
| 12>
| 13> * xyz 0 1
| 14>  C                 -1.18578599   -1.17301779    0.00000000
| 15>  C                 -1.22528521    0.21672485    0.00000000
| 16>  C                 -0.03021307    0.94488843    0.00000000
| 17>  C                  1.19387265    0.26897053    0.00000000
| 18>  C                  1.21998389   -1.12396818    0.00000000
| 19>  C                  0.03366349   -1.85245673    0.00000000
| 20>  H                 -2.12142076   -1.73821028    0.00000000
| 21>  H                 -2.17044776    0.76362561    0.00000000
| 22>  H                  2.12866956    0.83920121    0.00000000
| 23>  H                  2.18175171   -1.64285600    0.00000000
| 24>  H                  0.05704252   -2.94432740    0.00000000
| 25>  O                 -0.11105943    2.29589847    0.00000000
| 26>  H                  1.27175029    2.87713619    0.00000000
| 27> end
| 28>
| 29>                          ****END OF INPUT****

CARTESIAN COORDINATES (ANGSTROEM)
---------------------------------
  C     -1.185786   -1.173018    0.000000
  C     -1.225285    0.216725    0.000000
  C     -0.030213    0.944888    0.000000
  C      1.193873    0.268971    0.000000
  C      1.219984   -1.123968    0.000000
  C      0.033663   -1.852457    0.000000
  H     -2.121421   -1.738210    0.000000
  H     -2.170448    0.763626    0.000000
  H      2.128670    0.839201    0.000000
  H      2.181752   -1.642856    0.000000
  H      0.057043   -2.944327    0.000000
  O     -0.111059    2.295898    0.000000
  H      1.271750    2.877136    0.000000

 Total Charge           Charge          ....    0
 Multiplicity           Mult            ....    1
 Number of Electrons    NEL             ....   50
 Basis Dimension        Dim             ....  128

ORBITAL ENERGIES
----------------
                 SPIN UP ORBITALS
  NO   OCC          E(Eh)            E(eV)
   0   1.0000     -19.291512      -524.9487
   1   1.0000     -10.351496      -281.6785
   2   1.0000     -10.296362      -280.1783
   3   1.0000     -10.295688      -280.1599
   4   1.0000     -10.291644      -280.0499
   5   1.0000     -10.288113      -279.9538
   6   1.0000     -10.284425      -279.8534
   7   1.0000      -1.126580       -30.6558
   8   1.0000      -0.959728       -26.1155
   9   1.0000      -0.857530       -23.3346
  10   1.0000      -0.835022       -22.7221
  11   1.0000      -0.719354       -19.5746
  12   1.0000      -0.693187       -18.8626
  13   1.0000      -0.620827       -16.8936
  14   1.0000      -0.582009       -15.8373
  15   1.0000      -0.564418       -15.3586
  16   1.0000      -0.530133       -14.4257
  17   1.0000      -0.521319       -14.1858
  18   1.0000      -0.512083       -13.9345
  19   1.0000      -0.467099       -12.7104
  20   1.0000      -0.453586       -12.3427
  21   1.0000      -0.434872       -11.8335
  22   1.0000      -0.425054       -11.5663
  23   1.0000      -0.343290        -9.3414
  24   1.0000      -0.304468        -8.2850
  25   0.0000      -0.016381        -0.4458
  26   0.0000       0.068489         1.8637
  27   0.0000       0.087763         2.3882
  28   0.0000       0.150187         4.0868
  29   0.0000       0.189253         5.1498

                 SPIN DOWN ORBITALS
  NO   OCC          E(Eh)            E(eV)
   0   1.0000     -19.291512      -524.9487
   1   1.0000     -10.351496      -281.6785
   2   1.0000     -10.296362      -280.1783
   3   1.0000     -10.295688      -280.1599
   4   1.0000     -10.291644      -280.0499
   5   1.0000     -10.288113      -279.9538
   6   1.0000     -10.284425      -279.8534
   7   1.0000      -1.126580       -30.6558
   8   1.0000      -0.959728       -26.1155
   9   1.0000      -0.857530       -23.3346
  10   1.0000      -0.835022       -22.7221
  11   1.0000      -0.719354       -19.5746
  12   1.0000      -0.693187       -18.8626
  13   1.0000      -0.620827       -16.8936
  14   1.0000      -0.582009       -15.8373
  15   1.0000      -0.564418       -15.3586
  16   1.0000      -0.530133       -14.4257
  17   1.0000      -0.521319       -14.1858
  18   1.0000      -0.512083       -13.9345
  19   1.0000      -0.467099       -12.7104
  20   1.0000      -0.453586       -12.3427
  21   1.0000      -0.434872       -11.8335
  22   1.0000      -0.425054       -11.5663
  23   1.0000      -0.343290        -9.3414
  24   1.0000      -0.304468        -8.2850
  25   0.0000      -0.016381        -0.4458
  26   0.0000       0.068489         1.8637
  27   0.0000       0.087763         2.3882
  28   0.0000       0.150187         4.0868
  29   0.0000       0.189253         5.1498

MULLIKEN ATOMIC CHARGES AND SPIN POPULATIONS
--------------------------------------------
   0 C :   -0.009178    0.000000
   1 C :   -0.065888    0.000000
   2 C :    0.233720    0.000000
   3 C :   -0.104603    0.000000
   4 C :   -0.014674    0.000000
   5 C :   -0.035794    0.000000
   6 H :    0.024566    0.000000
   7 H :    0.020868    0.000000
   8 H :   -0.013458    0.000000
   9 H :    0.020752    0.000000
  10 H :    0.018051    0.000000
  11 O :   -0.342605    0.000000
  12 H :    0.268242    0.000000
Sum of atomic charges         :   -0.0000000

LOEWDIN ATOMIC CHARGES AND SPIN POPULATIONS
-------------------------------------------
   0 C :   -0.014797    0.000000
   1 C :   -0.065687    0.000000
   2 C :    0.035881    0.000000
   3 C :   -0.093934    0.000000
   4 C :   -0.017767    0.000000
   5 C :   -0.065725    0.000000
   6 H :    0.035035    0.000000
   7 H :    0.037406    0.000000
   8 H :    0.022553    0.000000
   9 H :    0.033659    0.000000
  10 H :    0.030543    0.000000
  11 O :   -0.178520    0.000000
  12 H :    0.241352    0.000000

  Mayer bond orders larger than 0.1
B(  0-C ,  1-C ) :   1.4095 B(  0-C ,  5-C ) :   1.3852 B(  0-C ,  6-H ) :   0.9868
B(  1-C ,  2-C ) :   1.3547 B(  1-C ,  7-H ) :   0.9919 B(  2-C ,  3-C ) :   1.3358
B(  2-C , 11-O ) :   1.1346 B(  3-C ,  4-C ) :   1.3970 B(  3-C ,  8-H ) :   0.9826
B(  4-C ,  5-C ) :   1.4073 B(  4-C ,  9-H ) :   0.9838 B(  5-C , 10-H ) :   0.9916
B( 11-O , 12-H ) :   0.8597

-----------------------------------------------------------------------------
         ABSORPTION SPECTRUM VIA TRANSITION ELECTRIC DIPOLE MOMENTS
-----------------------------------------------------------------------------
State   Energy  Wavelength   fosc         T2         TX        TY        TZ
        (cm-1)    (nm)                  (au**2)     (au)      (au)      (au)
-----------------------------------------------------------------------------
   1   18201.5    549.4   0.000000000   0.00000   0.00000   0.00000   0.00000
   2   21889.0    456.9   0.000000014   0.00000  -0.00000  -0.00000  -0.00046
   3   29601.4    337.8   0.000000000   0.00000   0.00000   0.00000  -0.00000
   4   33959.0    294.5   0.000000000   0.00000  -0.00000  -0.00000  -0.00000
   5   35049.7    285.3   0.000000000   0.00000  -0.00000   0.00000   0.00000
   6   38832.6    257.5   0.000000000   0.00000  -0.00000   0.00000   0.00000

Dispersion correction           -0.002983549
FINAL SINGLE POINT ENERGY      -307.058461492450

DIPOLE MOMENT
-------------
                                X             Y             Z
Electronic contribution:     -0.63252       1.93475      -0.00000
Nuclear contribution   :      1.28302      -1.83026       0.00000
                        -----------------------------------------
Total Dipole Moment    :      0.65051       0.10449      -0.00000
                        -----------------------------------------
Magnitude (a.u.)       :      0.65885
Magnitude (Debye)      :      1.67466

                             ****ORCA TERMINATED NORMALLY****
TOTAL RUN TIME: 0 days 0 hours 3 minutes 30 seconds 171 msec
