                         Program Version 4.0.1.2 - RELEASE -
|  1> ! UKS wB97X-D3 def2-SVP RIJCOSX def2/JK SlowConv
|  2>
|  3>
|  4> %scf
|  5> 	MaxIter		500
|  6> 	STABPerform	True
|  7> end
|  8>
|  9> %tddft
| 10> 	NRoots 6
| 11> end
| 12>
| 13> * xyz 0 1
| 14>  C                 -1.18578599   -1.17301779    0.00000000
| 15>  C                 -1.22528521    0.21672485    0.00000000
| 16>  C                 -0.03021307    0.94488843    0.00000000
| 17>  C                  1.19387265    0.26897053    0.00000000
| 18>  C                  1.21998389   -1.12396818    0.00000000
| 19>  C                  0.03366349   -1.85245673    0.00000000
| 20>  H                 -2.12142076   -1.73821028    0.00000000
| 21>  H                 -2.17044776    0.76362561    0.00000000
| 22>  H                  2.12866956    0.83920121    0.00000000
| 23>  H                  2.18175171   -1.64285600    0.00000000
| 24>  H                  0.05704252   -2.94432740    0.00000000
| 25>  O                 -0.11105943    2.29589847    0.00000000
| 26>  H                  0.71862640    2.64464110    0.00000000
| 27> end
| 28>
| 29>                          ****END OF INPUT****

CARTESIAN COORDINATES (ANGSTROEM)
---------------------------------
  C     -1.185786   -1.173018    0.000000
  C     -1.225285    0.216725    0.000000
  C     -0.030213    0.944888    0.000000
  C      1.193873    0.268971    0.000000
  C      1.219984   -1.123968    0.000000
  C      0.033663   -1.852457    0.000000
  H     -2.121421   -1.738210    0.000000
  H     -2.170448    0.763626    0.000000
  H      2.128670    0.839201    0.000000
  H      2.181752   -1.642856    0.000000
  H      0.057043   -2.944327    0.000000
  O     -0.111059    2.295898    0.000000
  H      0.718626    2.644641    0.000000

 Total Charge           Charge          ....    0
 Multiplicity           Mult            ....    1
 Number of Electrons    NEL             ....   50
 Basis Dimension        Dim             ....  128

ORBITAL ENERGIES
----------------
                 SPIN UP ORBITALS
  NO   OCC          E(Eh)            E(eV)
   0   1.0000     -19.267112      -524.2848
   1   1.0000     -10.353869      -281.7431
   2   1.0000     -10.297512      -280.2095
   3   1.0000     -10.295613      -280.1579
   4   1.0000     -10.292982      -280.0863
   5   1.0000     -10.286739      -279.9164
   6   1.0000     -10.286377      -279.9065
   7   1.0000      -1.182980       -32.1905
   8   1.0000      -0.965072       -26.2609
   9   1.0000      -0.859037       -23.3756
  10   1.0000      -0.848943       -23.1009
  11   1.0000      -0.736340       -20.0368
  12   1.0000      -0.709003       -19.2930
  13   1.0000      -0.654342       -17.8056
  14   1.0000      -0.601442       -16.3661
  15   1.0000      -0.569592       -15.4994
  16   1.0000      -0.537409       -14.6236
  17   1.0000      -0.521543       -14.1919
  18   1.0000      -0.520316       -14.1585
  19   1.0000      -0.490055       -13.3351
  20   1.0000      -0.456833       -12.4311
  21   1.0000      -0.441792       -12.0218
  22   1.0000      -0.432961       -11.7815
  23   1.0000      -0.343861        -9.3569
  24   1.0000      -0.310302        -8.4437
  25   0.0000       0.067689         1.8419
  26   0.0000       0.084645         2.3033
  27   0.0000       0.145943         3.9713
  28   0.0000       0.159321         4.3353
  29   0.0000       0.193425         5.2634

                 SPIN DOWN ORBITALS
  NO   OCC          E(Eh)            E(eV)
   0   1.0000     -19.267112      -524.2848
   1   1.0000     -10.353869      -281.7431
   2   1.0000     -10.297512      -280.2095
   3   1.0000     -10.295613      -280.1579
   4   1.0000     -10.292982      -280.0863
   5   1.0000     -10.286739      -279.9164
   6   1.0000     -10.286377      -279.9065
   7   1.0000      -1.182980       -32.1905
   8   1.0000      -0.965072       -26.2609
   9   1.0000      -0.859037       -23.3756
  10   1.0000      -0.848943       -23.1009
  11   1.0000      -0.736340       -20.0368
  12   1.0000      -0.709003       -19.2930
  13   1.0000      -0.654342       -17.8056
  14   1.0000      -0.601442       -16.3661
  15   1.0000      -0.569592       -15.4994
  16   1.0000      -0.537409       -14.6236
  17   1.0000      -0.521543       -14.1919
  18   1.0000      -0.520316       -14.1585
  19   1.0000      -0.490055       -13.3351
  20   1.0000      -0.456833       -12.4311
  21   1.0000      -0.441792       -12.0218
  22   1.0000      -0.432961       -11.7815
  23   1.0000      -0.343861        -9.3569
  24   1.0000      -0.310302        -8.4437
  25   0.0000       0.067689         1.8419
  26   0.0000       0.084645         2.3033
  27   0.0000       0.145943         3.9713
  28   0.0000       0.159321         4.3353
  29   0.0000       0.193425         5.2634

MULLIKEN ATOMIC CHARGES AND SPIN POPULATIONS
--------------------------------------------
   0 C :   -0.011296    0.000000
   1 C :   -0.059205    0.000000
   2 C :    0.141315    0.000000
   3 C :   -0.088985    0.000000
   4 C :   -0.015405    0.000000
   5 C :   -0.032207    0.000000
   6 H :    0.023733    0.000000
   7 H :    0.020223    0.000000
   8 H :    0.002013    0.000000
   9 H :    0.021748    0.000000
  10 H :    0.018999    0.000000
  11 O :   -0.166528    0.000000
  12 H :    0.145596    0.000000
Sum of atomic charges         :    0.0000000

LOEWDIN ATOMIC CHARGES AND SPIN POPULATIONS
-------------------------------------------
   0 C :   -0.016516    0.000000
   1 C :   -0.061550    0.000000
   2 C :    0.054974    0.000000
   3 C :   -0.090610    0.000000
   4 C :   -0.017971    0.000000
   5 C :   -0.060909    0.000000
   6 H :    0.034288    0.000000
   7 H :    0.037689    0.000000
   8 H :    0.028456    0.000000
   9 H :    0.033853    0.000000
  10 H :    0.030900    0.000000
  11 O :   -0.019537    0.000000
  12 H :    0.046933    0.000000

  Mayer bond orders larger than 0.1
B(  0-C ,  1-C ) :   1.4080 B(  0-C ,  5-C ) :   1.3842 B(  0-C ,  6-H ) :   0.9874
B(  1-C ,  2-C ) :   1.3663 B(  1-C ,  7-H ) :   0.9938 B(  2-C ,  3-C ) :   1.3442
B(  2-C , 11-O ) :   1.1844 B(  3-C ,  4-C ) :   1.3952 B(  3-C ,  8-H ) :   0.9855
B(  4-C ,  5-C ) :   1.4100 B(  4-C ,  9-H ) :   0.9849 B(  5-C , 10-H ) :   0.9918
B( 11-O , 12-H ) :   0.9943

-----------------------------------------------------------------------------
         ABSORPTION SPECTRUM VIA TRANSITION ELECTRIC DIPOLE MOMENTS
-----------------------------------------------------------------------------
State   Energy  Wavelength   fosc         T2         TX        TY        TZ
        (cm-1)    (nm)                  (au**2)     (au)      (au)      (au)
-----------------------------------------------------------------------------
   1   34067.2    293.5   0.000000000   0.00000   0.00000  -0.00000  -0.00000
   2   35896.5    278.6   0.000000000   0.00000   0.00000  -0.00000   0.00000
   3   39452.7    253.5   0.000000000   0.00000   0.00000  -0.00000  -0.00000
   4   43901.9    227.8   0.036299138   0.27220  -0.52112   0.02512   0.00000
   5   46175.5    216.6   0.000000000   0.00000   0.00000   0.00000  -0.00000
   6   52402.4    190.8   0.032023565   0.20118   0.04513   0.44626   0.00000

Dispersion correction           -0.002798406
FINAL SINGLE POINT ENERGY      -307.155383425239

DIPOLE MOMENT
-------------
                                X             Y             Z
Electronic contribution:     -0.28944       2.07809      -0.00000
Nuclear contribution   :      0.79753      -2.03432       0.00000
                        -----------------------------------------
Total Dipole Moment    :      0.50809       0.04377      -0.00000
                        -----------------------------------------
Magnitude (a.u.)       :      0.50997
Magnitude (Debye)      :      1.29624

                             ****ORCA TERMINATED NORMALLY****
TOTAL RUN TIME: 0 days 0 hours 2 minutes 26 seconds 291 msec
