                         Program Version 4.0.1.2 - RELEASE -
|  1> ! UKS wB97X-D3 def2-SVP RIJCOSX def2/JK SlowConv
|  2>
|  3>
|  4> %scf
|  5> 	MaxIter		500
|  6> 	STABPerform	True
|  7> end
|  8>
|  9> %tddft
| 10> 	NRoots 6
| 11> end
| 12>
| 13> * xyz 0 1
| 14>  C                 -1.18578599   -1.17301779    0.00000000
| 15>  C                 -1.22528521    0.21672485    0.00000000
| 16>  C                 -0.03021307    0.94488843    0.00000000
| 17>  C                  1.19387265    0.26897053    0.00000000
| 18>  C                  1.21998389   -1.12396818    0.00000000
| 19>  C                  0.03366349   -1.85245673    0.00000000
| 20>  H                 -2.12142076   -1.73821028    0.00000000
| 21>  H                 -2.17044776    0.76362561    0.00000000
| 22>  H                  2.12866956    0.83920121    0.00000000
| 23>  H                  2.18175171   -1.64285600    0.00000000
| 24>  H                  0.05704252   -2.94432740    0.00000000
| 25>  O                 -0.11105943    2.29589847    0.00000000
| 26>  H                  1.45612492    2.95463455    0.00000000
| 27> end
| 28>
| 29>                          ****END OF INPUT****

CARTESIAN COORDINATES (ANGSTROEM)
---------------------------------
  C     -1.185786   -1.173018    0.000000
  C     -1.225285    0.216725    0.000000
  C     -0.030213    0.944888    0.000000
  C      1.193873    0.268971    0.000000
  C      1.219984   -1.123968    0.000000
  C      0.033663   -1.852457    0.000000
  H     -2.121421   -1.738210    0.000000
  H     -2.170448    0.763626    0.000000
  H      2.128670    0.839201    0.000000
  H      2.181752   -1.642856    0.000000
  H      0.057043   -2.944327    0.000000
  O     -0.111059    2.295898    0.000000
  H      1.456125    2.954635    0.000000

 Total Charge           Charge          ....    0
 Multiplicity           Mult            ....    1
 Number of Electrons    NEL             ....   50
 Basis Dimension        Dim             ....  128

ORBITAL ENERGIES
----------------
                 SPIN UP ORBITALS
  NO   OCC          E(Eh)            E(eV)
   0   1.0000     -19.292465      -524.9746
   1   1.0000     -10.353597      -281.7357
   2   1.0000     -10.298030      -280.2236
   3   1.0000     -10.297848      -280.2187
   4   1.0000     -10.293962      -280.1130
   5   1.0000     -10.291532      -280.0468
   6   1.0000     -10.286249      -279.9031
   7   1.0000      -1.115031       -30.3415
   8   1.0000      -0.960627       -26.1400
   9   1.0000      -0.859243       -23.3812
  10   1.0000      -0.834855       -22.7176
  11   1.0000      -0.719184       -19.5700
  12   1.0000      -0.692921       -18.8553
  13   1.0000      -0.619225       -16.8500
  14   1.0000      -0.574858       -15.6427
  15   1.0000      -0.564127       -15.3507
  16   1.0000      -0.528994       -14.3947
  17   1.0000      -0.523179       -14.2364
  18   1.0000      -0.511974       -13.9315
  19   1.0000      -0.461946       -12.5702
  20   1.0000      -0.450279       -12.2527
  21   1.0000      -0.434295       -11.8178
  22   1.0000      -0.419980       -11.4282
  23   1.0000      -0.345260        -9.3950
  24   1.0000      -0.304539        -8.2869
  25   0.0000      -0.056228        -1.5301
  26   0.0000       0.066736         1.8160
  27   0.0000       0.086203         2.3457
  28   0.0000       0.149365         4.0644
  29   0.0000       0.188204         5.1213

                 SPIN DOWN ORBITALS
  NO   OCC          E(Eh)            E(eV)
   0   1.0000     -19.300260      -525.1868
   1   1.0000     -10.353443      -281.7315
   2   1.0000     -10.297999      -280.2228
   3   1.0000     -10.297923      -280.2207
   4   1.0000     -10.294085      -280.1163
   5   1.0000     -10.292004      -280.0597
   6   1.0000     -10.286205      -279.9019
   7   1.0000      -1.137757       -30.9599
   8   1.0000      -0.962616       -26.1941
   9   1.0000      -0.859874       -23.3984
  10   1.0000      -0.837879       -22.7999
  11   1.0000      -0.721777       -19.6406
  12   1.0000      -0.694732       -18.9046
  13   1.0000      -0.621312       -16.9068
  14   1.0000      -0.580988       -15.8095
  15   1.0000      -0.566987       -15.4285
  16   1.0000      -0.531358       -14.4590
  17   1.0000      -0.523390       -14.2422
  18   1.0000      -0.516321       -14.0498
  19   1.0000      -0.469765       -12.7830
  20   1.0000      -0.457379       -12.4459
  21   1.0000      -0.438814       -11.9407
  22   1.0000      -0.426391       -11.6027
  23   1.0000      -0.345297        -9.3960
  24   1.0000      -0.308156        -8.3853
  25   0.0000      -0.043841        -1.1930
  26   0.0000       0.066470         1.8087
  27   0.0000       0.085657         2.3308
  28   0.0000       0.149074         4.0565
  29   0.0000       0.188237         5.1222

MULLIKEN ATOMIC CHARGES AND SPIN POPULATIONS
--------------------------------------------
   0 C :   -0.008701   -0.003628
   1 C :   -0.067012   -0.018221
   2 C :    0.232463    0.017514
   3 C :   -0.097311   -0.003853
   4 C :   -0.014420   -0.000362
   5 C :   -0.035376    0.004825
   6 H :    0.026045   -0.001370
   7 H :    0.022513    0.000413
   8 H :   -0.011844   -0.001795
   9 H :    0.022342   -0.000817
  10 H :    0.019101   -0.000117
  11 O :   -0.300636   -0.398399
  12 H :    0.212837    0.405810
Sum of atomic charges         :   -0.0000000

LOEWDIN ATOMIC CHARGES AND SPIN POPULATIONS
-------------------------------------------
   0 C :   -0.014129   -0.002832
   1 C :   -0.065125   -0.014677
   2 C :    0.032591    0.000249
   3 C :   -0.088186   -0.002374
   4 C :   -0.017061    0.000797
   5 C :   -0.064859    0.003797
   6 H :    0.035850   -0.001027
   7 H :    0.037758    0.000291
   8 H :    0.023425    0.002278
   9 H :    0.034541   -0.000666
  10 H :    0.030993    0.000095
  11 O :   -0.147550   -0.363535
  12 H :    0.201751    0.377603

  Mayer bond orders larger than 0.1
B(  0-C ,  1-C ) :   1.4077 B(  0-C ,  5-C ) :   1.3870 B(  0-C ,  6-H ) :   0.9863
B(  1-C ,  2-C ) :   1.3468 B(  1-C ,  7-H ) :   0.9921 B(  2-C ,  3-C ) :   1.3327
B(  2-C , 11-O ) :   1.1430 B(  3-C ,  4-C ) :   1.3976 B(  3-C ,  8-H ) :   0.9836
B(  4-C ,  5-C ) :   1.4051 B(  4-C ,  9-H ) :   0.9838 B(  5-C , 10-H ) :   0.9915
B( 11-O , 12-H ) :   0.7149

-----------------------------------------------------------------------------
         ABSORPTION SPECTRUM VIA TRANSITION ELECTRIC DIPOLE MOMENTS
-----------------------------------------------------------------------------
State   Energy  Wavelength   fosc         T2         TX        TY        TZ
        (cm-1)    (nm)                  (au**2)     (au)      (au)      (au)
-----------------------------------------------------------------------------
   1    7263.8   1376.7   0.000000004   0.00000  -0.00000   0.00000   0.00044
   2   18766.0    532.9   0.000000140   0.00000  -0.00000   0.00000  -0.00157
   3   23401.7    427.3   0.014192289   0.19965  -0.33258  -0.29840   0.00000
   4   29027.6    344.5   0.000061591   0.00070  -0.00000   0.00001  -0.02643
   5   33961.5    294.5   0.000135830   0.00132  -0.01381  -0.03356  -0.00000
   6   34971.6    285.9   0.000067713   0.00064  -0.00001  -0.00001   0.02525

Dispersion correction           -0.002995930
FINAL SINGLE POINT ENERGY      -307.019050013069

DIPOLE MOMENT
-------------
                                X             Y             Z
Electronic contribution:     -0.86315       1.76067      -0.00000
Nuclear contribution   :      1.44485      -1.76223       0.00000
                        -----------------------------------------
Total Dipole Moment    :      0.58171      -0.00157      -0.00000
                        -----------------------------------------
Magnitude (a.u.)       :      0.58171
Magnitude (Debye)      :      1.47859

                             ****ORCA TERMINATED NORMALLY****
TOTAL RUN TIME: 0 days 0 hours 4 minutes 38 seconds 34 msec
