                         Program Version 4.0.1.2 - RELEASE -
|  1> ! UKS wB97X-D3 def2-SVP RIJCOSX def2/JK SlowConv
|  2>
|  3>
|  4> %scf
|  5> 	MaxIter		500
|  6> 	STABPerform	True
|  7> end
|  8>
|  9> %tddft
| 10> 	NRoots 6
| 11> end
| 12>
| 13> * xyz 0 1
| 14>  C                 -1.18578599   -1.17301779    0.00000000
| 15>  C                 -1.22528521    0.21672485    0.00000000
| 16>  C                 -0.03021307    0.94488843    0.00000000
| 17>  C                  1.19387265    0.26897053    0.00000000
| 18>  C                  1.21998389   -1.12396818    0.00000000
| 19>  C                  0.03366349   -1.85245673    0.00000000
| 20>  H                 -2.12142076   -1.73821028    0.00000000
| 21>  H                 -2.17044776    0.76362561    0.00000000
| 22>  H                  2.12866956    0.83920121    0.00000000
| 23>  H                  2.18175171   -1.64285600    0.00000000
| 24>  H                  0.05704252   -2.94432740    0.00000000
| 25>  O                 -0.11105943    2.29589847    0.00000000
| 26>  H                  0.58034543    2.58651733    0.00000000
| 27> end
| 28>
| 29>                          ****END OF INPUT****

CARTESIAN COORDINATES (ANGSTROEM)
---------------------------------
  C     -1.185786   -1.173018    0.000000
  C     -1.225285    0.216725    0.000000
  C     -0.030213    0.944888    0.000000
  C      1.193873    0.268971    0.000000
  C      1.219984   -1.123968    0.000000
  C      0.033663   -1.852457    0.000000
  H     -2.121421   -1.738210    0.000000
  H     -2.170448    0.763626    0.000000
  H      2.128670    0.839201    0.000000
  H      2.181752   -1.642856    0.000000
  H      0.057043   -2.944327    0.000000
  O     -0.111059    2.295898    0.000000
  H      0.580345    2.586517    0.000000

 Total Charge           Charge          ....    0
 Multiplicity           Mult            ....    1
 Number of Electrons    NEL             ....   50
 Basis Dimension        Dim             ....  128

ORBITAL ENERGIES
----------------
                 SPIN UP ORBITALS
  NO   OCC          E(Eh)            E(eV)
   0   1.0000     -19.253682      -523.9193
   1   1.0000     -10.355556      -281.7890
   2   1.0000     -10.298607      -280.2393
   3   1.0000     -10.296521      -280.1826
   4   1.0000     -10.294673      -280.1323
   5   1.0000     -10.288022      -279.9513
   6   1.0000     -10.287808      -279.9455
   7   1.0000      -1.224305       -33.3150
   8   1.0000      -0.969033       -26.3687
   9   1.0000      -0.862831       -23.4788
  10   1.0000      -0.856604       -23.3094
  11   1.0000      -0.750242       -20.4151
  12   1.0000      -0.713499       -19.4153
  13   1.0000      -0.662498       -18.0275
  14   1.0000      -0.603566       -16.4239
  15   1.0000      -0.572044       -15.5661
  16   1.0000      -0.539309       -14.6753
  17   1.0000      -0.524568       -14.2742
  18   1.0000      -0.522499       -14.2179
  19   1.0000      -0.496046       -13.4981
  20   1.0000      -0.458475       -12.4757
  21   1.0000      -0.445121       -12.1124
  22   1.0000      -0.434981       -11.8364
  23   1.0000      -0.344915        -9.3856
  24   1.0000      -0.313317        -8.5258
  25   0.0000       0.066646         1.8135
  26   0.0000       0.082776         2.2524
  27   0.0000       0.148175         4.0321
  28   0.0000       0.174840         4.7576
  29   0.0000       0.196126         5.3369

                 SPIN DOWN ORBITALS
  NO   OCC          E(Eh)            E(eV)
   0   1.0000     -19.253682      -523.9193
   1   1.0000     -10.355556      -281.7890
   2   1.0000     -10.298607      -280.2393
   3   1.0000     -10.296521      -280.1826
   4   1.0000     -10.294673      -280.1323
   5   1.0000     -10.288022      -279.9513
   6   1.0000     -10.287808      -279.9455
   7   1.0000      -1.224305       -33.3150
   8   1.0000      -0.969033       -26.3687
   9   1.0000      -0.862831       -23.4788
  10   1.0000      -0.856604       -23.3094
  11   1.0000      -0.750242       -20.4151
  12   1.0000      -0.713499       -19.4153
  13   1.0000      -0.662498       -18.0275
  14   1.0000      -0.603566       -16.4239
  15   1.0000      -0.572044       -15.5661
  16   1.0000      -0.539309       -14.6753
  17   1.0000      -0.524568       -14.2742
  18   1.0000      -0.522499       -14.2179
  19   1.0000      -0.496046       -13.4981
  20   1.0000      -0.458475       -12.4757
  21   1.0000      -0.445121       -12.1124
  22   1.0000      -0.434981       -11.8364
  23   1.0000      -0.344915        -9.3856
  24   1.0000      -0.313317        -8.5258
  25   0.0000       0.066646         1.8135
  26   0.0000       0.082776         2.2524
  27   0.0000       0.148175         4.0321
  28   0.0000       0.174840         4.7576
  29   0.0000       0.196126         5.3369

MULLIKEN ATOMIC CHARGES AND SPIN POPULATIONS
--------------------------------------------
   0 C :   -0.011882    0.000000
   1 C :   -0.056517    0.000000
   2 C :    0.109011    0.000000
   3 C :   -0.079903    0.000000
   4 C :   -0.015614    0.000000
   5 C :   -0.030590    0.000000
   6 H :    0.024159    0.000000
   7 H :    0.021042    0.000000
   8 H :    0.006522    0.000000
   9 H :    0.022692    0.000000
  10 H :    0.019772    0.000000
  11 O :   -0.042108    0.000000
  12 H :    0.033416    0.000000
Sum of atomic charges         :   -0.0000000

LOEWDIN ATOMIC CHARGES AND SPIN POPULATIONS
-------------------------------------------
   0 C :   -0.016805    0.000000
   1 C :   -0.059035    0.000000
   2 C :    0.065677    0.000000
   3 C :   -0.086053    0.000000
   4 C :   -0.017868    0.000000
   5 C :   -0.058838    0.000000
   6 H :    0.034440    0.000000
   7 H :    0.038112    0.000000
   8 H :    0.030548    0.000000
   9 H :    0.034255    0.000000
  10 H :    0.031241    0.000000
  11 O :    0.089854    0.000000
  12 H :   -0.085527    0.000000

  Mayer bond orders larger than 0.1
B(  0-C ,  1-C ) :   1.4061 B(  0-C ,  5-C ) :   1.3847 B(  0-C ,  6-H ) :   0.9873
B(  1-C ,  2-C ) :   1.3677 B(  1-C ,  7-H ) :   0.9942 B(  2-C ,  3-C ) :   1.3458
B(  2-C , 11-O ) :   1.1833 B(  3-C ,  4-C ) :   1.3944 B(  3-C ,  8-H ) :   0.9866
B(  4-C ,  5-C ) :   1.4100 B(  4-C ,  9-H ) :   0.9853 B(  5-C , 10-H ) :   0.9918
B( 11-O , 12-H ) :   1.0667

-----------------------------------------------------------------------------
         ABSORPTION SPECTRUM VIA TRANSITION ELECTRIC DIPOLE MOMENTS
-----------------------------------------------------------------------------
State   Energy  Wavelength   fosc         T2         TX        TY        TZ
        (cm-1)    (nm)                  (au**2)     (au)      (au)      (au)
-----------------------------------------------------------------------------
   1   34118.9    293.1   0.000000000   0.00000  -0.00000  -0.00000  -0.00000
   2   36219.6    276.1   0.000000000   0.00000   0.00000   0.00000  -0.00000
   3   39521.5    253.0   0.000000000   0.00000  -0.00000  -0.00000   0.00000
   4   44089.5    226.8   0.033257572   0.24833   0.49796  -0.01906  -0.00000
   5   45992.2    217.4   0.000000000   0.00000   0.00000  -0.00000   0.00000
   6   52571.2    190.2   0.025789834   0.16150  -0.04036  -0.39984  -0.00000

Dispersion correction           -0.002812875
FINAL SINGLE POINT ENERGY      -307.084058490649

DIPOLE MOMENT
-------------
                                X             Y             Z
Electronic contribution:     -0.22263       2.06292      -0.00000
Nuclear contribution   :      0.67616      -2.08534       0.00000
                        -----------------------------------------
Total Dipole Moment    :      0.45352      -0.02242      -0.00000
                        -----------------------------------------
Magnitude (a.u.)       :      0.45408
Magnitude (Debye)      :      1.15418

                             ****ORCA TERMINATED NORMALLY****
TOTAL RUN TIME: 0 days 0 hours 2 minutes 27 seconds 204 msec
