                         Program Version 4.0.1.2 - RELEASE -
|  1> ! UKS wB97X-D3 def2-SVP RIJCOSX def2/JK SlowConv
|  2>
|  3>
|  4> %scf
|  5> 	MaxIter		500
|  6> 	STABPerform	True
|  7> end
|  8>
|  9> %tddft
| 10> 	NRoots 6
| 11> end
| 12>
| 13> * xyz 0 1
| 14>  C                 -1.18578599   -1.17301779    0.00000000
| 15>  C                 -1.22528521    0.21672485    0.00000000
| 16>  C                 -0.03021307    0.94488843    0.00000000
| 17>  C                  1.19387265    0.26897053    0.00000000
| 18>  C                  1.21998389   -1.12396818    0.00000000
| 19>  C                  0.03366349   -1.85245673    0.00000000
| 20>  H                 -2.12142076   -1.73821028    0.00000000
| 21>  H                 -2.17044776    0.76362561    0.00000000
| 22>  H                  2.12866956    0.83920121    0.00000000
| 23>  H                  2.18175171   -1.64285600    0.00000000
| 24>  H                  0.05704252   -2.94432740    0.00000000
| 25>  O                 -0.11105943    2.29589847    0.00000000
| 26>  H                  2.28581075    3.30337717    0.00000000
| 27> end
| 28>
| 29>                          ****END OF INPUT****

CARTESIAN COORDINATES (ANGSTROEM)
---------------------------------
  C     -1.185786   -1.173018    0.000000
  C     -1.225285    0.216725    0.000000
  C     -0.030213    0.944888    0.000000
  C      1.193873    0.268971    0.000000
  C      1.219984   -1.123968    0.000000
  C      0.033663   -1.852457    0.000000
  H     -2.121421   -1.738210    0.000000
  H     -2.170448    0.763626    0.000000
  H      2.128670    0.839201    0.000000
  H      2.181752   -1.642856    0.000000
  H      0.057043   -2.944327    0.000000
  O     -0.111059    2.295898    0.000000
  H      2.285811    3.303377    0.000000

 Total Charge           Charge          ....    0
 Multiplicity           Mult            ....    1
 Number of Electrons    NEL             ....   50
 Basis Dimension        Dim             ....  128

ORBITAL ENERGIES
----------------
                 SPIN UP ORBITALS
  NO   OCC          E(Eh)            E(eV)
   0   1.0000     -19.306064      -525.3447
   1   1.0000     -10.365352      -282.0556
   2   1.0000     -10.306735      -280.4605
   3   1.0000     -10.306373      -280.4507
   4   1.0000     -10.304394      -280.3968
   5   1.0000     -10.304030      -280.3869
   6   1.0000     -10.294830      -280.1366
   7   1.0000      -1.116735       -30.3879
   8   1.0000      -0.968683       -26.3592
   9   1.0000      -0.867611       -23.6089
  10   1.0000      -0.841975       -22.9113
  11   1.0000      -0.725317       -19.7369
  12   1.0000      -0.699269       -19.0281
  13   1.0000      -0.625764       -17.0279
  14   1.0000      -0.572775       -15.5860
  15   1.0000      -0.569501       -15.4969
  16   1.0000      -0.535307       -14.5664
  17   1.0000      -0.530604       -14.4385
  18   1.0000      -0.523717       -14.2511
  19   1.0000      -0.464802       -12.6479
  20   1.0000      -0.453178       -12.3316
  21   1.0000      -0.444037       -12.0829
  22   1.0000      -0.414741       -11.2857
  23   1.0000      -0.353704        -9.6248
  24   1.0000      -0.314616        -8.5611
  25   0.0000      -0.077911        -2.1201
  26   0.0000       0.058576         1.5939
  27   0.0000       0.076420         2.0795
  28   0.0000       0.145624         3.9626
  29   0.0000       0.184709         5.0262

                 SPIN DOWN ORBITALS
  NO   OCC          E(Eh)            E(eV)
   0   1.0000     -19.324747      -525.8531
   1   1.0000     -10.365070      -282.0479
   2   1.0000     -10.306882      -280.4645
   3   1.0000     -10.306439      -280.4525
   4   1.0000     -10.305127      -280.4167
   5   1.0000     -10.305071      -280.4152
   6   1.0000     -10.294746      -280.1343
   7   1.0000      -1.172350       -31.9013
   8   1.0000      -0.974003       -26.5040
   9   1.0000      -0.869688       -23.6654
  10   1.0000      -0.850237       -23.1361
  11   1.0000      -0.733172       -19.9506
  12   1.0000      -0.705295       -19.1921
  13   1.0000      -0.632068       -17.1995
  14   1.0000      -0.596245       -16.2247
  15   1.0000      -0.579904       -15.7800
  16   1.0000      -0.542638       -14.7659
  17   1.0000      -0.535226       -14.5642
  18   1.0000      -0.531767       -14.4701
  19   1.0000      -0.498205       -13.5569
  20   1.0000      -0.466938       -12.7060
  21   1.0000      -0.453915       -12.3516
  22   1.0000      -0.440505       -11.9868
  23   1.0000      -0.354058        -9.6344
  24   1.0000      -0.322574        -8.7777
  25   0.0000       0.057771         1.5720
  26   0.0000       0.075161         2.0452
  27   0.0000       0.079022         2.1503
  28   0.0000       0.147099         4.0028
  29   0.0000       0.186852         5.0845

MULLIKEN ATOMIC CHARGES AND SPIN POPULATIONS
--------------------------------------------
   0 C :   -0.007844   -0.006189
   1 C :   -0.069378   -0.042989
   2 C :    0.190414    0.046551
   3 C :   -0.076995   -0.030826
   4 C :   -0.010048   -0.003743
   5 C :   -0.031919    0.009404
   6 H :    0.030802   -0.003127
   7 H :    0.027435    0.000432
   8 H :    0.018714    0.000367
   9 H :    0.029437   -0.002446
  10 H :    0.023622   -0.000255
  11 O :   -0.140396   -0.939377
  12 H :    0.016155    0.972197
Sum of atomic charges         :   -0.0000000

LOEWDIN ATOMIC CHARGES AND SPIN POPULATIONS
-------------------------------------------
   0 C :   -0.012071   -0.004678
   1 C :   -0.063476   -0.034684
   2 C :    0.022749   -0.001759
   3 C :   -0.069638   -0.023020
   4 C :   -0.012543   -0.001784
   5 C :   -0.058691    0.007381
   6 H :    0.038111   -0.002311
   7 H :    0.038842    0.000533
   8 H :    0.034150    0.004785
   9 H :    0.038023   -0.001912
  10 H :    0.032914    0.000145
  11 O :   -0.005809   -0.906508
  12 H :    0.017439    0.963813

  Mayer bond orders larger than 0.1
B(  0-C ,  1-C ) :   1.4055 B(  0-C ,  5-C ) :   1.3912 B(  0-C ,  6-H ) :   0.9854
B(  1-C ,  2-C ) :   1.3342 B(  1-C ,  7-H ) :   0.9922 B(  2-C ,  3-C ) :   1.3353
B(  2-C , 11-O ) :   1.1672 B(  3-C ,  4-C ) :   1.3960 B(  3-C ,  8-H ) :   0.9931
B(  4-C ,  5-C ) :   1.4021 B(  4-C ,  9-H ) :   0.9857 B(  5-C , 10-H ) :   0.9917

-----------------------------------------------------------------------------
         ABSORPTION SPECTRUM VIA TRANSITION ELECTRIC DIPOLE MOMENTS
-----------------------------------------------------------------------------
State   Energy  Wavelength   fosc         T2         TX        TY        TZ
        (cm-1)    (nm)                  (au**2)     (au)      (au)      (au)
-----------------------------------------------------------------------------
   1   -1814.4   -5511.6   -0.000000000   0.00000   0.00000   0.00004  -0.00006
   2   22695.4    440.6   0.000033924   0.00049  -0.00002   0.00000  -0.02218
   3   29681.6    336.9   0.000000721   0.00001  -0.00003   0.00003   0.00283
   4   31967.4    312.8   0.028078939   0.28917  -0.43742  -0.31278  -0.00000
   5   34038.5    293.8   0.000182949   0.00177  -0.00142   0.04204  -0.00000
   6   35661.9    280.4   0.000385465   0.00356   0.05907   0.00834  -0.00000

Dispersion correction           -0.003216409
FINAL SINGLE POINT ENERGY      -306.979613829175

DIPOLE MOMENT
-------------
                                X             Y             Z
Electronic contribution:     -2.08227       0.97710      -0.00000
Nuclear contribution   :      2.17309      -1.45613       0.00000
                        -----------------------------------------
Total Dipole Moment    :      0.09083      -0.47903      -0.00000
                        -----------------------------------------
Magnitude (a.u.)       :      0.48756
Magnitude (Debye)      :      1.23929

                             ****ORCA TERMINATED NORMALLY****
TOTAL RUN TIME: 0 days 0 hours 4 minutes 8 seconds 420 msec
