                         Program Version 4.0.1.2 - RELEASE -
|  1> ! UKS wB97X-D3 def2-SVP RIJCOSX def2/JK SlowConv
|  2>
|  3>
|  4> %scf
|  5> 	MaxIter		500
|  6> 	STABPerform	True
|  7> end
|  8>
|  9> %tddft
| 10> 	NRoots 6
| 11> end
| 12>
| 13> * xyz 0 1
| 14>  C                 -1.18578599   -1.17301779    0.00000000
| 15>  C                 -1.22528521    0.21672485    0.00000000
| 16>  C                 -0.03021307    0.94488843    0.00000000
| 17>  C                  1.19387265    0.26897053    0.00000000
| 18>  C                  1.21998389   -1.12396818    0.00000000
| 19>  C                  0.03366349   -1.85245673    0.00000000
| 20>  H                 -2.12142076   -1.73821028    0.00000000
| 21>  H                 -2.17044776    0.76362561    0.00000000
| 22>  H                  2.12866956    0.83920121    0.00000000
| 23>  H                  2.18175171   -1.64285600    0.00000000
| 24>  H                  0.05704252   -2.94432740    0.00000000
| 25>  O                 -0.11105943    2.29589847    0.00000000
| 26>  H                  0.85690737    2.70276488    0.00000000
| 27> end
| 28>
| 29>                          ****END OF INPUT****

CARTESIAN COORDINATES (ANGSTROEM)
---------------------------------
  C     -1.185786   -1.173018    0.000000
  C     -1.225285    0.216725    0.000000
  C     -0.030213    0.944888    0.000000
  C      1.193873    0.268971    0.000000
  C      1.219984   -1.123968    0.000000
  C      0.033663   -1.852457    0.000000
  H     -2.121421   -1.738210    0.000000
  H     -2.170448    0.763626    0.000000
  H      2.128670    0.839201    0.000000
  H      2.181752   -1.642856    0.000000
  H      0.057043   -2.944327    0.000000
  O     -0.111059    2.295898    0.000000
  H      0.856907    2.702765    0.000000

 Total Charge           Charge          ....    0
 Multiplicity           Mult            ....    1
 Number of Electrons    NEL             ....   50
 Basis Dimension        Dim             ....  128

ORBITAL ENERGIES
----------------
                 SPIN UP ORBITALS
  NO   OCC          E(Eh)            E(eV)
   0   1.0000     -19.276598      -524.5429
   1   1.0000     -10.352677      -281.7107
   2   1.0000     -10.296690      -280.1872
   3   1.0000     -10.295043      -280.1424
   4   1.0000     -10.291819      -280.0546
   5   1.0000     -10.286135      -279.9000
   6   1.0000     -10.285247      -279.8758
   7   1.0000      -1.156830       -31.4789
   8   1.0000      -0.962267       -26.1846
   9   1.0000      -0.857805       -23.3421
  10   1.0000      -0.842336       -22.9211
  11   1.0000      -0.727136       -19.7864
  12   1.0000      -0.703237       -19.1360
  13   1.0000      -0.643707       -17.5162
  14   1.0000      -0.598580       -16.2882
  15   1.0000      -0.567541       -15.4436
  16   1.0000      -0.535514       -14.5721
  17   1.0000      -0.520935       -14.1754
  18   1.0000      -0.516898       -14.0655
  19   1.0000      -0.484233       -13.1767
  20   1.0000      -0.455489       -12.3945
  21   1.0000      -0.438991       -11.9456
  22   1.0000      -0.431157       -11.7324
  23   1.0000      -0.343143        -9.3374
  24   1.0000      -0.307813        -8.3760
  25   0.0000       0.068427         1.8620
  26   0.0000       0.086148         2.3442
  27   0.0000       0.119194         3.2434
  28   0.0000       0.151593         4.1251
  29   0.0000       0.191718         5.2169

                 SPIN DOWN ORBITALS
  NO   OCC          E(Eh)            E(eV)
   0   1.0000     -19.276598      -524.5429
   1   1.0000     -10.352677      -281.7107
   2   1.0000     -10.296690      -280.1872
   3   1.0000     -10.295043      -280.1424
   4   1.0000     -10.291819      -280.0546
   5   1.0000     -10.286135      -279.9000
   6   1.0000     -10.285247      -279.8758
   7   1.0000      -1.156830       -31.4789
   8   1.0000      -0.962267       -26.1846
   9   1.0000      -0.857805       -23.3421
  10   1.0000      -0.842336       -22.9211
  11   1.0000      -0.727136       -19.7864
  12   1.0000      -0.703237       -19.1360
  13   1.0000      -0.643707       -17.5162
  14   1.0000      -0.598580       -16.2882
  15   1.0000      -0.567541       -15.4436
  16   1.0000      -0.535514       -14.5721
  17   1.0000      -0.520935       -14.1754
  18   1.0000      -0.516898       -14.0655
  19   1.0000      -0.484233       -13.1767
  20   1.0000      -0.455489       -12.3945
  21   1.0000      -0.438991       -11.9456
  22   1.0000      -0.431157       -11.7324
  23   1.0000      -0.343143        -9.3374
  24   1.0000      -0.307813        -8.3760
  25   0.0000       0.068427         1.8620
  26   0.0000       0.086148         2.3442
  27   0.0000       0.119194         3.2434
  28   0.0000       0.151593         4.1251
  29   0.0000       0.191718         5.2169

MULLIKEN ATOMIC CHARGES AND SPIN POPULATIONS
--------------------------------------------
   0 C :   -0.010734    0.000000
   1 C :   -0.061631    0.000000
   2 C :    0.173767    0.000000
   3 C :   -0.096373    0.000000
   4 C :   -0.015128    0.000000
   5 C :   -0.033553    0.000000
   6 H :    0.023542    0.000000
   7 H :    0.019827    0.000000
   8 H :   -0.002640    0.000000
   9 H :    0.021027    0.000000
  10 H :    0.018402    0.000000
  11 O :   -0.261861    0.000000
  12 H :    0.225357    0.000000
Sum of atomic charges         :   -0.0000000

LOEWDIN ATOMIC CHARGES AND SPIN POPULATIONS
-------------------------------------------
   0 C :   -0.016142    0.000000
   1 C :   -0.063522    0.000000
   2 C :    0.047302    0.000000
   3 C :   -0.093857    0.000000
   4 C :   -0.018006    0.000000
   5 C :   -0.062701    0.000000
   6 H :    0.034269    0.000000
   7 H :    0.037422    0.000000
   8 H :    0.026457    0.000000
   9 H :    0.033565    0.000000
  10 H :    0.030645    0.000000
  11 O :   -0.099195    0.000000
  12 H :    0.143762    0.000000

  Mayer bond orders larger than 0.1
B(  0-C ,  1-C ) :   1.4094 B(  0-C ,  5-C ) :   1.3839 B(  0-C ,  6-H ) :   0.9874
B(  1-C ,  2-C ) :   1.3649 B(  1-C ,  7-H ) :   0.9932 B(  2-C ,  3-C ) :   1.3426
B(  2-C , 11-O ) :   1.1709 B(  3-C ,  4-C ) :   1.3958 B(  3-C ,  8-H ) :   0.9844
B(  4-C ,  5-C ) :   1.4098 B(  4-C ,  9-H ) :   0.9845 B(  5-C , 10-H ) :   0.9918
B( 11-O , 12-H ) :   0.9323

-----------------------------------------------------------------------------
         ABSORPTION SPECTRUM VIA TRANSITION ELECTRIC DIPOLE MOMENTS
-----------------------------------------------------------------------------
State   Energy  Wavelength   fosc         T2         TX        TY        TZ
        (cm-1)    (nm)                  (au**2)     (au)      (au)      (au)
-----------------------------------------------------------------------------
   1   34022.8    293.9   0.000000000   0.00000   0.00000  -0.00000  -0.00000
   2   35606.6    280.8   0.000000000   0.00000  -0.00000  -0.00000   0.00000
   3   39394.3    253.8   0.000000000   0.00000  -0.00000   0.00000   0.00000
   4   43726.7    228.7   0.038730272   0.29159  -0.53891   0.03428   0.00000
   5   46350.0    215.7   0.000000000   0.00000   0.00000   0.00000   0.00000
   6   51906.0    192.7   0.000000000   0.00000  -0.00000   0.00000  -0.00000

Dispersion correction           -0.002781492
FINAL SINGLE POINT ENERGY      -307.153455935839

DIPOLE MOMENT
-------------
                                X             Y             Z
Electronic contribution:     -0.35806       2.07524      -0.00000
Nuclear contribution   :      0.91890      -1.98331       0.00000
                        -----------------------------------------
Total Dipole Moment    :      0.56084       0.09193      -0.00000
                        -----------------------------------------
Magnitude (a.u.)       :      0.56833
Magnitude (Debye)      :      1.44458

                             ****ORCA TERMINATED NORMALLY****
TOTAL RUN TIME: 0 days 0 hours 2 minutes 26 seconds 284 msec
