                         Program Version 4.0.1.2 - RELEASE -
|  1> ! UKS wB97X-D3 def2-SVP RIJCOSX def2/JK SlowConv
|  2>
|  3>
|  4> %scf
|  5> 	MaxIter		500
|  6> 	STABPerform	True
|  7> end
|  8>
|  9> %tddft
| 10> 	NRoots 6
| 11> end
| 12>
| 13> * xyz 0 1
| 14>  C                 -1.18578599   -1.17301779    0.00000000
| 15>  C                 -1.22528521    0.21672485    0.00000000
| 16>  C                 -0.03021307    0.94488843    0.00000000
| 17>  C                  1.19387265    0.26897053    0.00000000
| 18>  C                  1.21998389   -1.12396818    0.00000000
| 19>  C                  0.03366349   -1.85245673    0.00000000
| 20>  H                 -2.12142076   -1.73821028    0.00000000
| 21>  H                 -2.17044776    0.76362561    0.00000000
| 22>  H                  2.12866956    0.83920121    0.00000000
| 23>  H                  2.18175171   -1.64285600    0.00000000
| 24>  H                  0.05704252   -2.94432740    0.00000000
| 25>  O                 -0.11105943    2.29589847    0.00000000
| 26>  H                  1.73268686    3.07088209    0.00000000
| 27> end
| 28>
| 29>                          ****END OF INPUT****

CARTESIAN COORDINATES (ANGSTROEM)
---------------------------------
  C     -1.185786   -1.173018    0.000000
  C     -1.225285    0.216725    0.000000
  C     -0.030213    0.944888    0.000000
  C      1.193873    0.268971    0.000000
  C      1.219984   -1.123968    0.000000
  C      0.033663   -1.852457    0.000000
  H     -2.121421   -1.738210    0.000000
  H     -2.170448    0.763626    0.000000
  H      2.128670    0.839201    0.000000
  H      2.181752   -1.642856    0.000000
  H      0.057043   -2.944327    0.000000
  O     -0.111059    2.295898    0.000000
  H      1.732687    3.070882    0.000000

 Total Charge           Charge          ....    0
 Multiplicity           Mult            ....    1
 Number of Electrons    NEL             ....   50
 Basis Dimension        Dim             ....  128

ORBITAL ENERGIES
----------------
                 SPIN UP ORBITALS
  NO   OCC          E(Eh)            E(eV)
   0   1.0000     -19.314086      -525.5630
   1   1.0000     -10.359695      -281.9016
   2   1.0000     -10.302978      -280.3583
   3   1.0000     -10.302512      -280.3456
   4   1.0000     -10.300091      -280.2797
   5   1.0000     -10.299577      -280.2657
   6   1.0000     -10.290853      -280.0283
   7   1.0000      -1.158550       -31.5258
   8   1.0000      -0.969044       -26.3690
   9   1.0000      -0.865336       -23.5470
  10   1.0000      -0.844838       -22.9892
  11   1.0000      -0.728187       -19.8150
  12   1.0000      -0.700477       -19.0610
  13   1.0000      -0.626939       -17.0599
  14   1.0000      -0.589110       -16.0305
  15   1.0000      -0.573956       -15.6181
  16   1.0000      -0.537566       -14.6279
  17   1.0000      -0.528118       -14.3708
  18   1.0000      -0.526867       -14.3368
  19   1.0000      -0.486301       -13.2329
  20   1.0000      -0.462899       -12.5961
  21   1.0000      -0.447497       -12.1770
  22   1.0000      -0.435058       -11.8385
  23   1.0000      -0.350146        -9.5280
  24   1.0000      -0.316363        -8.6087
  25   0.0000      -0.029458        -0.8016
  26   0.0000       0.061633         1.6771
  27   0.0000       0.079893         2.1740
  28   0.0000       0.146864         3.9964
  29   0.0000       0.186554         5.0764

                 SPIN DOWN ORBITALS
  NO   OCC          E(Eh)            E(eV)
   0   1.0000     -19.298671      -525.1435
   1   1.0000     -10.359962      -281.9089
   2   1.0000     -10.302847      -280.3547
   3   1.0000     -10.302528      -280.3460
   4   1.0000     -10.299692      -280.2689
   5   1.0000     -10.298673      -280.2411
   6   1.0000     -10.290929      -280.0304
   7   1.0000      -1.112771       -30.2800
   8   1.0000      -0.964815       -26.2539
   9   1.0000      -0.863866       -23.5070
  10   1.0000      -0.838331       -22.8122
  11   1.0000      -0.722321       -19.6554
  12   1.0000      -0.696079       -18.9413
  13   1.0000      -0.622348       -16.9349
  14   1.0000      -0.571988       -15.5646
  15   1.0000      -0.567376       -15.4391
  16   1.0000      -0.531752       -14.4697
  17   1.0000      -0.527551       -14.3554
  18   1.0000      -0.517818       -14.0906
  19   1.0000      -0.463757       -12.6195
  20   1.0000      -0.450256       -12.2521
  21   1.0000      -0.438973       -11.9451
  22   1.0000      -0.418111       -11.3774
  23   1.0000      -0.349974        -9.5233
  24   1.0000      -0.309509        -8.4222
  25   0.0000      -0.069714        -1.8970
  26   0.0000       0.062216         1.6930
  27   0.0000       0.080943         2.2026
  28   0.0000       0.147324         4.0089
  29   0.0000       0.186350         5.0708

MULLIKEN ATOMIC CHARGES AND SPIN POPULATIONS
--------------------------------------------
   0 C :   -0.008243    0.005950
   1 C :   -0.068061    0.036616
   2 C :    0.210904   -0.036835
   3 C :   -0.083165    0.013622
   4 C :   -0.012712    0.001607
   5 C :   -0.033457   -0.008319
   6 H :    0.028788    0.002685
   7 H :    0.025393   -0.000562
   8 H :    0.000887    0.003713
   9 H :    0.026227    0.001916
  10 H :    0.021570    0.000164
  11 O :   -0.203301    0.783456
  12 H :    0.095170   -0.804013
Sum of atomic charges         :   -0.0000000

LOEWDIN ATOMIC CHARGES AND SPIN POPULATIONS
-------------------------------------------
   0 C :   -0.012832    0.004621
   1 C :   -0.064227    0.029482
   2 C :    0.026983    0.000484
   3 C :   -0.077468    0.010673
   4 C :   -0.014617   -0.000469
   5 C :   -0.061635   -0.006594
   6 H :    0.037191    0.002002
   7 H :    0.038391   -0.000506
   8 H :    0.028026   -0.004559
   9 H :    0.036508    0.001494
  10 H :    0.032040   -0.000183
  11 O :   -0.064274    0.740872
  12 H :    0.095914   -0.777316

  Mayer bond orders larger than 0.1
B(  0-C ,  1-C ) :   1.4066 B(  0-C ,  5-C ) :   1.3896 B(  0-C ,  6-H ) :   0.9858
B(  1-C ,  2-C ) :   1.3391 B(  1-C ,  7-H ) :   0.9922 B(  2-C ,  3-C ) :   1.3323
B(  2-C , 11-O ) :   1.1602 B(  3-C ,  4-C ) :   1.3980 B(  3-C ,  8-H ) :   0.9884
B(  4-C ,  5-C ) :   1.4027 B(  4-C ,  9-H ) :   0.9847 B(  5-C , 10-H ) :   0.9916
B( 11-O , 12-H ) :   0.2989

-----------------------------------------------------------------------------
         ABSORPTION SPECTRUM VIA TRANSITION ELECTRIC DIPOLE MOMENTS
-----------------------------------------------------------------------------
State   Energy  Wavelength   fosc         T2         TX        TY        TZ
        (cm-1)    (nm)                  (au**2)     (au)      (au)      (au)
-----------------------------------------------------------------------------
   1    1111.3   8998.9   0.000000000   0.00000   0.00001   0.00003  -0.00007
   2   24945.7    400.9   0.000046639   0.00062   0.00000  -0.00000  -0.02481
   3   27996.8    357.2   0.000000858   0.00001   0.00001   0.00001   0.00318
   4   30073.0    332.5   0.082924760   0.90779   0.69524   0.65148  -0.00000
   5   32307.3    309.5   0.000002914   0.00003   0.00003   0.00001  -0.00545
   6   34002.3    294.1   0.000166363   0.00161  -0.00347  -0.03998   0.00000

Dispersion correction           -0.003055548
FINAL SINGLE POINT ENERGY      -306.990763443645

DIPOLE MOMENT
-------------
                                X             Y             Z
Electronic contribution:     -1.36743       1.39382       0.00000
Nuclear contribution   :      1.68760      -1.66020       0.00000
                        -----------------------------------------
Total Dipole Moment    :      0.32017      -0.26638       0.00000
                        -----------------------------------------
Magnitude (a.u.)       :      0.41649
Magnitude (Debye)      :      1.05863

                             ****ORCA TERMINATED NORMALLY****
TOTAL RUN TIME: 0 days 0 hours 4 minutes 20 seconds 703 msec
