                         Program Version 4.0.1.2 - RELEASE -
|  1> ! UKS wB97X-D3 def2-SVP RIJCOSX def2/JK SlowConv
|  2>
|  3>
|  4> %scf
|  5> 	MaxIter		500
|  6> 	STABPerform	True
|  7> end
|  8>
|  9> %tddft
| 10> 	NRoots 6
| 11> end
| 12>
| 13> * xyz 0 1
| 14>  C                 -1.18578599   -1.17301779    0.00000000
| 15>  C                 -1.22528521    0.21672485    0.00000000
| 16>  C                 -0.03021307    0.94488843    0.00000000
| 17>  C                  1.19387265    0.26897053    0.00000000
| 18>  C                  1.21998389   -1.12396818    0.00000000
| 19>  C                  0.03366349   -1.85245673    0.00000000
| 20>  H                 -2.12142076   -1.73821028    0.00000000
| 21>  H                 -2.17044776    0.76362561    0.00000000
| 22>  H                  2.12866956    0.83920121    0.00000000
| 23>  H                  2.18175171   -1.64285600    0.00000000
| 24>  H                  0.05704252   -2.94432740    0.00000000
| 25>  O                 -0.11105943    2.29589847    0.00000000
| 26>  H                  1.08737566    2.79963783    0.00000000
| 27> end
| 28>
| 29>                          ****END OF INPUT****

CARTESIAN COORDINATES (ANGSTROEM)
---------------------------------
  C     -1.185786   -1.173018    0.000000
  C     -1.225285    0.216725    0.000000
  C     -0.030213    0.944888    0.000000
  C      1.193873    0.268971    0.000000
  C      1.219984   -1.123968    0.000000
  C      0.033663   -1.852457    0.000000
  H     -2.121421   -1.738210    0.000000
  H     -2.170448    0.763626    0.000000
  H      2.128670    0.839201    0.000000
  H      2.181752   -1.642856    0.000000
  H      0.057043   -2.944327    0.000000
  O     -0.111059    2.295898    0.000000
  H      1.087376    2.799638    0.000000

 Total Charge           Charge          ....    0
 Multiplicity           Mult            ....    1
 Number of Electrons    NEL             ....   50
 Basis Dimension        Dim             ....  128

ORBITAL ENERGIES
----------------
                 SPIN UP ORBITALS
  NO   OCC          E(Eh)            E(eV)
   0   1.0000     -19.286269      -524.8061
   1   1.0000     -10.351619      -281.6819
   2   1.0000     -10.296089      -280.1708
   3   1.0000     -10.294949      -280.1398
   4   1.0000     -10.291180      -280.0372
   5   1.0000     -10.286598      -279.9126
   6   1.0000     -10.284258      -279.8489
   7   1.0000      -1.134226       -30.8639
   8   1.0000      -0.959932       -26.1211
   9   1.0000      -0.857158       -23.3244
  10   1.0000      -0.836505       -22.7625
  11   1.0000      -0.720836       -19.6150
  12   1.0000      -0.695692       -18.9308
  13   1.0000      -0.627134       -17.0652
  14   1.0000      -0.590414       -16.0660
  15   1.0000      -0.565257       -15.3814
  16   1.0000      -0.532356       -14.4861
  17   1.0000      -0.520769       -14.1709
  18   1.0000      -0.513267       -13.9667
  19   1.0000      -0.474579       -12.9139
  20   1.0000      -0.454048       -12.3553
  21   1.0000      -0.435886       -11.8611
  22   1.0000      -0.428259       -11.6535
  23   1.0000      -0.342807        -9.3283
  24   1.0000      -0.305179        -8.3044
  25   0.0000       0.041375         1.1259
  26   0.0000       0.068856         1.8737
  27   0.0000       0.087596         2.3836
  28   0.0000       0.150643         4.0992
  29   0.0000       0.190122         5.1735

                 SPIN DOWN ORBITALS
  NO   OCC          E(Eh)            E(eV)
   0   1.0000     -19.286269      -524.8061
   1   1.0000     -10.351619      -281.6819
   2   1.0000     -10.296089      -280.1708
   3   1.0000     -10.294949      -280.1398
   4   1.0000     -10.291180      -280.0372
   5   1.0000     -10.286598      -279.9126
   6   1.0000     -10.284258      -279.8489
   7   1.0000      -1.134226       -30.8639
   8   1.0000      -0.959932       -26.1211
   9   1.0000      -0.857158       -23.3244
  10   1.0000      -0.836505       -22.7625
  11   1.0000      -0.720836       -19.6150
  12   1.0000      -0.695692       -18.9308
  13   1.0000      -0.627134       -17.0652
  14   1.0000      -0.590414       -16.0660
  15   1.0000      -0.565257       -15.3814
  16   1.0000      -0.532356       -14.4861
  17   1.0000      -0.520769       -14.1709
  18   1.0000      -0.513267       -13.9667
  19   1.0000      -0.474579       -12.9139
  20   1.0000      -0.454048       -12.3553
  21   1.0000      -0.435886       -11.8611
  22   1.0000      -0.428259       -11.6535
  23   1.0000      -0.342807        -9.3283
  24   1.0000      -0.305179        -8.3044
  25   0.0000       0.041375         1.1259
  26   0.0000       0.068856         1.8737
  27   0.0000       0.087596         2.3836
  28   0.0000       0.150643         4.0992
  29   0.0000       0.190122         5.1735

MULLIKEN ATOMIC CHARGES AND SPIN POPULATIONS
--------------------------------------------
   0 C :   -0.009890    0.000000
   1 C :   -0.064388    0.000000
   2 C :    0.216734    0.000000
   3 C :   -0.104514    0.000000
   4 C :   -0.014786    0.000000
   5 C :   -0.035078    0.000000
   6 H :    0.023834    0.000000
   7 H :    0.020062    0.000000
   8 H :   -0.009461    0.000000
   9 H :    0.020511    0.000000
  10 H :    0.017939    0.000000
  11 O :   -0.339864    0.000000
  12 H :    0.278901    0.000000
Sum of atomic charges         :    0.0000000

LOEWDIN ATOMIC CHARGES AND SPIN POPULATIONS
-------------------------------------------
   0 C :   -0.015405    0.000000
   1 C :   -0.065363    0.000000
   2 C :    0.039179    0.000000
   3 C :   -0.095669    0.000000
   4 C :   -0.017925    0.000000
   5 C :   -0.064806    0.000000
   6 H :    0.034550    0.000000
   7 H :    0.037288    0.000000
   8 H :    0.023807    0.000000
   9 H :    0.033424    0.000000
  10 H :    0.030466    0.000000
  11 O :   -0.169439    0.000000
  12 H :    0.229894    0.000000

  Mayer bond orders larger than 0.1
B(  0-C ,  1-C ) :   1.4104 B(  0-C ,  5-C ) :   1.3843 B(  0-C ,  6-H ) :   0.9872
B(  1-C ,  2-C ) :   1.3612 B(  1-C ,  7-H ) :   0.9922 B(  2-C ,  3-C ) :   1.3394
B(  2-C , 11-O ) :   1.1420 B(  3-C ,  4-C ) :   1.3964 B(  3-C ,  8-H ) :   0.9833
B(  4-C ,  5-C ) :   1.4088 B(  4-C ,  9-H ) :   0.9841 B(  5-C , 10-H ) :   0.9917
B( 11-O , 12-H ) :   0.8743

-----------------------------------------------------------------------------
         ABSORPTION SPECTRUM VIA TRANSITION ELECTRIC DIPOLE MOMENTS
-----------------------------------------------------------------------------
State   Energy  Wavelength   fosc         T2         TX        TY        TZ
        (cm-1)    (nm)                  (au**2)     (au)      (au)      (au)
-----------------------------------------------------------------------------
   1   31649.7    316.0   0.000000000   0.00000  -0.00000  -0.00000   0.00000
   2   33971.6    294.4   0.000000000   0.00000  -0.00000   0.00000  -0.00000
   3   35109.1    284.8   0.000001647   0.00002  -0.00000  -0.00000  -0.00393
   4   35235.5    283.8   0.000000000   0.00000  -0.00000   0.00000   0.00000
   5   39325.1    254.3   0.000000000   0.00000   0.00000   0.00000  -0.00000
   6   43481.9    230.0   0.040367604   0.30563  -0.54921   0.06329   0.00000

Dispersion correction           -0.002905034
FINAL SINGLE POINT ENERGY      -307.103591798003

DIPOLE MOMENT
-------------
                                X             Y             Z
Electronic contribution:     -0.49465       2.02117      -0.00000
Nuclear contribution   :      1.12119      -1.89828       0.00000
                        -----------------------------------------
Total Dipole Moment    :      0.62655       0.12289      -0.00000
                        -----------------------------------------
Magnitude (a.u.)       :      0.63848
Magnitude (Debye)      :      1.62290

                             ****ORCA TERMINATED NORMALLY****
TOTAL RUN TIME: 0 days 0 hours 3 minutes 13 seconds 182 msec
